299
Lattice="28.224999999999998 0.0 0.0 0.0 28.224999999999998 0.0 0.0 0.0 20.125" Properties=species:S:1:pos:R:3:forces:R:3 energy=-16468.243999262686 pbc="T T T"
Al       5.00000000       5.00000000       5.00000000       0.32358180       0.32383497       0.27595250
Al       5.00000000       7.02500000       7.02500000      -0.37738537       0.34343342       0.67541510
Al       7.02500000       5.00000000       7.02500000       0.33499194      -0.37709814       0.67139493
Al       7.02500000       7.02500000       5.00000000       0.32739945       0.32731540      -0.60666669
Al       5.07486394       5.07672811       9.19053878      -0.00838102      -0.00793687       0.01291123
Al       4.96492333       7.08615792      11.32667189      -0.01047009      -0.00019904       0.01124333
Al       7.07898272       4.94885718      11.32781826      -0.00282198      -0.01686292       0.01101897
Al       7.08171479       7.08048459       9.17457837      -0.01246222      -0.01061118       0.01303452
Al       5.00000000       5.00000000      13.46153373       0.25281891       0.26465398      -0.53175341
Al       5.00000000       7.02500000      15.58982908       0.01360497       0.45821354      -0.26730415
Al       7.02500000       5.00000000      15.58982908       0.45810596       0.01347049      -0.26846898
Al       7.02500000       7.02500000      13.46153373       0.27252915       0.27804407      -0.40720962
Al       5.00000000       9.05000000       5.00000000      -0.20362912      -0.03395524      -0.21061484
Al       5.00000000      11.07500000       7.02500000      -0.49847550      -0.01312681       0.66442724
Al       7.02500000       9.05000000       7.02500000       0.20334349       0.01546371       0.81831487
Al       7.02500000      11.07500000       5.00000000       0.33188015      -0.01154105      -0.66175144
Al       4.89976832       9.04488210       9.14366249      -0.01954195       0.00646659       0.00448214
Al       4.86991262      11.05953184      11.31852033      -0.00083317       0.00848958       0.00331022
Al       7.04682313       9.08747158      11.30683034      -0.00558400       0.02913828       0.01950769
Al       7.00930174      11.07761829       9.16886804       0.00520746       0.02288987       0.02286124
Al       5.00000000       9.05000000      13.46153373      -0.34404184       0.03537547      -0.21903380
Al       5.00000000      11.07500000      15.58982908      -0.09366687      -0.01581406      -0.17435069
Al       7.02500000       9.05000000      15.58982908       0.33133297      -0.04106135       0.17060586
Al       7.02500000      11.07500000      13.46153373       0.18785644       0.02052520      -0.41237273
Al       5.00000000      13.10000000       5.00000000      -0.20731539      -0.00335191      -0.20945955
Al       5.00000000      15.12500000       7.02500000      -0.52103894       0.01474253       0.67751167
Al       7.02500000      13.10000000       7.02500000       0.17156239       0.00089298       0.90078909
Al       7.02500000      15.12500000       5.00000000       0.33277860       0.00243130      -0.65947380
Al       4.87061678      13.09466874       9.14999969      -0.00074581       0.00380038       0.01096644
Al       4.87193825      15.12897180      11.31925706       0.00695453      -0.00170921      -0.00079624
Al       6.98538919      13.09066238      11.29844708       0.00796739       0.00612234      -0.00429026
Al       6.98974989      15.12877426       9.16668789       0.01010652      -0.00219908       0.03077015
Al       5.00000000      13.10000000      13.46153373      -0.39895417      -0.01610367      -0.31621569
Al       5.00000000      15.12500000      15.58982908      -0.09461594       0.00379681      -0.17470911
Al       7.02500000      13.10000000      15.58982908       0.33165302      -0.00405014       0.17104740
Al       7.02500000      15.12500000      13.46153373       0.11834647       0.00137561      -0.40386479
Al       5.00000000      17.15000000       5.00000000      -0.20696970       0.01345710      -0.21124950
Al       5.00000000      19.17500000       7.02500000      -0.47129578      -0.03735762       0.57690205
Al       7.02500000      17.15000000       7.02500000       0.17923997      -0.01497093       0.87023086
Al       7.02500000      19.17500000       5.00000000       0.33047344       0.03733893      -0.66053557
Al       4.87296963      17.16490617       9.15177446      -0.00399329      -0.00906854       0.00883362
Al       4.88602710      19.18626443      11.32869593      -0.00971193      -0.00447596       0.01004790
Al       6.99215123      17.16135454      11.30062153       0.00479033      -0.01865558       0.00191337
Al       7.03855813      19.14875864       9.16386863      -0.00234036      -0.02492603       0.01186450
Al       5.00000000      17.15000000      13.46153373      -0.39459083       0.01399035      -0.29148608
Al       5.00000000      19.17500000      15.58982908      -0.08949763       0.03662130      -0.17677897
Al       7.02500000      17.15000000      15.58982908       0.33134289       0.01433806       0.17246773
Al       7.02500000      19.17500000      13.46153373       0.22151622      -0.01138113      -0.37105583
Al       5.00000000      21.20000000       5.00000000      -0.10250560      -0.45398852      -0.12102079
Al       5.00000000      23.22500000       7.02500000       0.10517641      -0.10517641       0.78892999
Al       7.02500000      21.20000000       7.02500000       0.28077217      -0.28077217       0.86490922
Al       7.02500000      23.22500000       5.00000000       0.45398852       0.10250560      -0.12102079
Al       4.96133146      21.14098231       9.14507763      -0.01651797       0.00189248       0.00270401
Al       5.08308690      23.14191310      11.28340895       0.00708697      -0.00708697      -0.00460564
Al       7.09523689      21.12976311      11.29659340      -0.00176807       0.00176807       0.01494747
Al       7.08401769      23.26366854       9.14507763      -0.00189248       0.01651797       0.00270401
Al       5.00000000      21.20000000      13.46153373      -0.24122164      -0.34303723      -0.30171215
Al       5.00000000      23.22500000      15.58982908       0.46140495      -0.46140495      -0.53241723
Al       7.02500000      21.20000000      15.58982908       0.32851276      -0.32851276       0.11674335
Al       7.02500000      23.22500000      13.46153373       0.34303723       0.24122164      -0.30171215
Al       9.05000000       5.00000000       5.00000000      -0.03375378      -0.20394970      -0.20959520
Al       9.05000000       7.02500000       7.02500000       0.00467060       0.19825127       0.81537541
Al      11.07500000       5.00000000       7.02500000      -0.01210278      -0.51302779       0.65752472
Al      11.07500000       7.02500000       5.00000000      -0.01083864       0.33171996      -0.66074148
Al       9.04037641       4.88943690       9.14276127       0.00613102      -0.02331134       0.00358096
Al       9.06522737       7.02571615      11.30627928       0.01999877      -0.00994496       0.02036977
Al      11.06154047       4.87434591      11.31852368       0.00992104      -0.00398124       0.00286566
Al      11.06704133       6.99880632       9.16651186       0.01812179      -0.00003948       0.01904852
Al       9.05000000       5.00000000      13.46153373       0.03394012      -0.36254738      -0.20866756
Al       9.05000000       7.02500000      15.58982908      -0.04089044       0.33148676       0.16957656
Al      11.07500000       5.00000000      15.58982908      -0.01550771      -0.09357969      -0.17421742
Al      11.07500000       7.02500000      13.46153373       0.00842190       0.14768771      -0.38608948
Al       9.05000000       9.05000000       5.00000000      -0.03715646      -0.03721468      -0.72155280
Al       9.05000000      11.07500000       7.02500000      -0.02845634       0.04335685       0.78374063
Al      11.07500000       9.05000000       7.02500000       0.01377990      -0.03207065       0.77351263
Al      11.07500000      11.07500000       5.00000000      -0.01054418      -0.01050168      -0.71987080
Al       9.07560920       9.07829172       9.15632099       0.03326716       0.04006700       0.01915974
Al       9.09242619      11.12561407      11.31361292       0.03144494       0.02658523      -0.00270732
Al      11.07523210       9.03955874      11.31163669       0.02084886       0.03460495      -0.00180528
Al      11.09257714      11.09587534       9.16891898       0.01563762       0.02030171       0.04086621
Al       9.05000000       9.05000000      13.46153373      -0.02430378      -0.00167250      -0.30848292
Al       9.05000000      11.07500000      15.58982908      -0.04351756      -0.01565453       0.23550437
Al      11.07500000       9.05000000      15.58982908      -0.01492530      -0.04355428       0.23264048
Al      11.07500000      11.07500000      13.46153373       0.02888135       0.06759273      -0.36999148
Al       9.05000000      13.10000000       5.00000000      -0.03630223      -0.00175214      -0.71970865
Al       9.05000000      15.12500000       7.02500000      -0.04959431      -0.00557456       0.79456376
Al      11.07500000      13.10000000       7.02500000      -0.02251669      -0.00532569       0.72322823
Al      11.07500000      15.12500000       5.00000000      -0.00941661       0.00219383      -0.71400356
Al       9.05060571      13.11222636       9.16600649       0.02698307       0.00560842       0.03814095
Al       9.00964057      15.12514600      11.31313391       0.02961194      -0.00237052      -0.01073897
Al      11.19262335      13.22280864      11.31665166       0.00274361      -0.00261769      -0.01944480
Al      11.09679447      15.12236449       9.15933648      -0.00023820       0.00057465       0.03865424
Al       9.05000000      13.10000000      13.46153373       0.00422033       0.04243586      -0.38650252
Al       9.05000000      15.12500000      15.58982908      -0.04151558       0.00319757       0.23019187
Al      11.07500000      13.10000000      15.58982908      -0.01956367      -0.00781140       0.24461770
Al      11.07500000      15.12500000      13.46153373       0.18296705      -0.00146580      -0.24247392
Al       9.05000000      17.15000000       5.00000000      -0.03660019       0.01078160      -0.72224260
Al       9.05000000      19.17500000       7.02500000       0.00063276      -0.00063276       0.77038354
Al      11.07500000      17.15000000       7.02500000      -0.00980045       0.00980045       0.71893436
Al      11.07500000      19.17500000       5.00000000      -0.01078160       0.03660019      -0.72224260
Al       9.06369058      17.13164782       9.16593081       0.02878727      -0.01917866       0.02934598
Al       9.11419230      19.11080770      11.31559558       0.03839537      -0.03839537       0.00623926
Al      11.20263579      17.02236421      11.31575303       0.00831110      -0.00831110      -0.01542233
Al      11.09335218      19.16130942       9.16593081       0.01917866      -0.02878727       0.02934598
Al       9.05000000      17.15000000      13.46153373       0.01751241      -0.05046174      -0.36476144
Al       9.05000000      19.17500000      15.58982908      -0.04233010       0.04233010       0.23477338
Al      11.07500000      17.15000000      15.58982908      -0.01896923       0.01896923       0.24661195
Al      11.07500000      19.17500000      13.46153373       0.05046174      -0.01751241      -0.36476144
Al       9.05000000      21.20000000       5.00000000      -0.03733893      -0.33047344      -0.66053557
Al       9.05000000      23.22500000       7.02500000       0.03735762       0.47129578       0.57690205
Al      11.07500000      21.20000000       7.02500000       0.01497093      -0.17923997       0.87023086
Al      11.07500000      23.22500000       5.00000000      -0.01345710       0.20696970      -0.21124950
Al       9.07624136      21.18644187       9.16386863       0.02492603       0.00234036       0.01186450
Al       9.03873557      23.33897290      11.32869593       0.00447596       0.00971193       0.01004790
Al      11.06364546      21.23284877      11.30062153       0.01865558      -0.00479033       0.00191337
Al      11.06009383      23.35203037       9.15177446       0.00906854       0.00399329       0.00883362
Al       9.05000000      21.20000000      13.46153373       0.01138113      -0.22151622      -0.37105583
Al       9.05000000      23.22500000      15.58982908      -0.03662130       0.08949763      -0.17677897
Al      11.07500000      21.20000000      15.58982908      -0.01433806      -0.33134289       0.17246773
Al      11.07500000      23.22500000      13.46153373      -0.01399035       0.39459083      -0.29148608
Al      13.10000000       5.00000000       5.00000000      -0.00281434      -0.20701181      -0.20925060
Al      13.10000000       7.02500000       7.02500000      -0.00043158       0.13675782       0.87121577
Al      15.12500000       5.00000000       7.02500000       0.01625438      -0.51760121       0.68189852
Al      15.12500000       7.02500000       5.00000000       0.00293034       0.33266172      -0.65827169
Al      13.09603606       4.87401644       9.15085095       0.00200652      -0.00589807       0.01198306
Al      13.09614193       6.99327832      11.29798285       0.00215923       0.00242002      -0.00092727
Al      15.12917517       4.87241228      11.31980935      -0.00440735      -0.00154813       0.00021171
Al      15.13102488       6.99191609       9.16808461      -0.00592152       0.00340870       0.02459166
Al      13.10000000       5.00000000      13.46153373      -0.01387672      -0.39197109      -0.32508464
Al      13.10000000       7.02500000      15.58982908      -0.00340213       0.33201693       0.17129038
Al      15.12500000       5.00000000      15.58982908       0.00448885      -0.09463811      -0.17544575
Al      15.12500000       7.02500000      13.46153373       0.00442019       0.13948636      -0.41664906
Al      13.10000000       9.05000000       5.00000000      -0.00158228      -0.03753481      -0.71769373
Al      13.10000000      11.07500000       7.02500000      -0.00005983       0.00510197       0.78105008
Al      15.12500000       9.05000000       7.02500000      -0.00477742      -0.04674046       0.78983396
Al      15.12500000      11.07500000       5.00000000       0.00232791      -0.01103612      -0.71648286
Al      13.09995786       9.03068192       9.15355125       0.00116059       0.03115724       0.03700212
Al      13.10334376      11.04508957      11.31163204       0.00073613       0.01767576      -0.02211448
Al      15.13112244       9.02625406      11.31069168      -0.00634459       0.03120169      -0.00880387
Al      15.10990238      11.08754554       9.16740127      -0.00376705       0.01569343       0.04750458
Al      13.10000000       9.05000000      13.46153373       0.00542781      -0.10585627      -0.30153162
Al      13.10000000      11.07500000      15.58982908      -0.00343545      -0.01457918       0.22924537
Al      15.12500000       9.05000000      15.58982908       0.00383591      -0.04358957       0.23087981
Al      15.12500000      11.07500000      13.46153373      -0.03519083       0.05403586      -0.37300334
Al      13.10000000      13.10000000       5.00000000      -0.00216560      -0.00066157      -0.71069244
Al      13.10000000      15.12500000       7.02500000      -0.00491360       0.00491360       0.50159897
Al      15.12500000      13.10000000       7.02500000       0.00870748      -0.00870748       0.72177937
Al      15.12500000      15.12500000       5.00000000       0.00066157       0.00216560      -0.71069244
Al      13.10098634      13.12705826       9.16079134      -0.00268359      -0.00772898       0.04323381
Al      15.00190455      13.22309545      11.31693053       0.00295940      -0.00295940      -0.02342070
Al      15.09794174      15.12401366       9.16079134       0.00772898       0.00268359       0.04323381
Al      13.10000000      13.10000000      13.46153373      -0.00965588       0.20300846      -0.25084546
Al      13.10000000      15.12500000      15.58982908      -0.00376125       0.00376125       0.34467671
Al      15.12500000      13.10000000      15.58982908       0.00811472      -0.00811472       0.24218544
Al      15.12500000      15.12500000      13.46153373      -0.20300846       0.00965588      -0.25084546
Al      13.10000000      17.15000000       5.00000000      -0.00219383       0.00941661      -0.71400356
Al      13.10000000      19.17500000       7.02500000       0.00557456       0.04959431       0.79456376
Al      15.12500000      17.15000000       7.02500000       0.00532569       0.02251669       0.72322823
Al      15.12500000      19.17500000       5.00000000       0.00175214       0.03630223      -0.71970865
Al      13.10263551      17.12820553       9.15933648      -0.00057465       0.00023820       0.03865424
Al      13.09985400      19.21535943      11.31313391       0.00237052      -0.02961194      -0.01073897
Al      15.00219136      17.03237665      11.31665166       0.00261769      -0.00274361      -0.01944480
Al      15.11277364      19.17439429       9.16600649      -0.00560842      -0.02698307       0.03814095
Al      13.10000000      17.15000000      13.46153373       0.00146580      -0.18296705      -0.24247392
Al      13.10000000      19.17500000      15.58982908      -0.00319757       0.04151558       0.23019187
Al      15.12500000      17.15000000      15.58982908       0.00781140       0.01956367       0.24461770
Al      15.12500000      19.17500000      13.46153373      -0.04243586      -0.00422033      -0.38650252
Al      13.10000000      21.20000000       5.00000000      -0.00243130      -0.33277860      -0.65947380
Al      13.10000000      23.22500000       7.02500000      -0.01474253       0.52103894       0.67751167
Al      15.12500000      21.20000000       7.02500000      -0.00089298      -0.17156239       0.90078909
Al      15.12500000      23.22500000       5.00000000       0.00335191       0.20731539      -0.20945955
Al      13.09622574      21.23525011       9.16668789       0.00219908      -0.01010652       0.03077015
Al      13.09602820      23.35306175      11.31925706       0.00170921      -0.00695453      -0.00079624
Al      15.13433762      21.23961081      11.29844708      -0.00612234      -0.00796739      -0.00429026
Al      15.13033126      23.35438322       9.14999969      -0.00380038       0.00074581       0.01096644
Al      13.10000000      21.20000000      13.46153373      -0.00137561      -0.11834647      -0.40386479
Al      13.10000000      23.22500000      15.58982908      -0.00379681       0.09461594      -0.17470911
Al      15.12500000      21.20000000      15.58982908       0.00405014      -0.33165302       0.17104740
Al      15.12500000      23.22500000      13.46153373       0.01610367       0.39895417      -0.31621569
Al      17.15000000       5.00000000       5.00000000       0.01373950      -0.20682297      -0.21045522
Al      17.15000000       7.02500000       7.02500000      -0.01212627       0.16393762       0.85314170
Al      19.17500000       5.00000000       7.02500000      -0.03480713      -0.47852559       0.57723647
Al      19.17500000       7.02500000       5.00000000       0.03719539       0.33064662      -0.65910234
Al      17.16450320       4.87373927       9.15226826      -0.01055558      -0.01424087       0.00820746
Al      17.15884858       6.99689560      11.30029501      -0.01814421      -0.00440118       0.00825277
Al      19.18513771       4.88852241      11.32843571      -0.00612419      -0.01962871       0.01101126
Al      19.15256149       7.03395967       9.16238947      -0.02204413      -0.01176092       0.00671150
Al      17.15000000       5.00000000      13.46153373       0.01531461      -0.39091538      -0.29669603
Al      17.15000000       7.02500000      15.58982908       0.01475344       0.33184851       0.17191855
Al      19.17500000       5.00000000      15.58982908       0.03665528      -0.08946604      -0.17753234
Al      19.17500000       7.02500000      13.46153373      -0.00297298       0.20405936      -0.36008878
Al      17.15000000       9.05000000       5.00000000       0.01182395      -0.03778597      -0.72016005
Al      17.15000000      11.07500000       7.02500000      -0.02337070       0.02337070       0.78050155
Al      19.17500000       9.05000000       7.02500000       0.01722284      -0.01722284       0.74629154
Al      19.17500000      11.07500000       5.00000000       0.03778597      -0.01182395      -0.72016005
Al      17.13690919       9.05729057       9.15803762      -0.02354053       0.03364872       0.02657243
Al      17.10003564      11.12496436      11.31089526      -0.02450916       0.02450916      -0.01385081
Al      19.13865928       9.08634072      11.31382086      -0.03952306       0.03952306       0.01376414
Al      19.16770943      11.08809081       9.15803762      -0.03364872       0.02354053       0.02657243
Al      17.15000000       9.05000000      13.46153373      -0.01797943      -0.03048917      -0.32335841
Al      17.15000000      11.07500000      15.58982908       0.01600546      -0.01600546       0.23490052
Al      19.17500000       9.05000000      15.58982908       0.04220252      -0.04220252       0.23236824
Al      19.17500000      11.07500000      13.46153373       0.03048917       0.01797943      -0.32335841
Al      17.15000000      13.10000000       5.00000000       0.01103612      -0.00232791      -0.71648286
Al      17.15000000      15.12500000       7.02500000      -0.00510197       0.00005983       0.78105008
Al      19.17500000      13.10000000       7.02500000       0.04674046       0.00477742       0.78983396
Al      19.17500000      15.12500000       5.00000000       0.03753481       0.00158228      -0.71769373
Al      17.13745446      13.11509762       9.16740127      -0.01569343       0.00376705       0.04750458
Al      17.17991043      15.12165624      11.31163204      -0.01767576      -0.00073613      -0.02211448
Al      19.19874594      13.09387756      11.31069168      -0.03120169       0.00634459      -0.00880387
Al      19.19431808      15.12504214       9.15355125      -0.03115724      -0.00116059       0.03700212
Al      17.15000000      13.10000000      13.46153373      -0.05403586       0.03519083      -0.37300334
Al      17.15000000      15.12500000      15.58982908       0.01457918       0.00343545       0.22924537
Al      19.17500000      13.10000000      15.58982908       0.04358957      -0.00383591       0.23087981
Al      19.17500000      15.12500000      13.46153373       0.10585627      -0.00542781      -0.30153162
Al      17.15000000      17.15000000       5.00000000       0.01050168       0.01054418      -0.71987080
Al      17.15000000      19.17500000       7.02500000      -0.04335685       0.02845634       0.78374063
Al      19.17500000      17.15000000       7.02500000       0.03207065      -0.01377990       0.77351263
Al      19.17500000      19.17500000       5.00000000       0.03721468       0.03715646      -0.72155280
Al      17.12912466      17.13242286       9.16891898      -0.02030171      -0.01563762       0.04086621
Al      17.09938593      19.13257381      11.31361292      -0.02658523      -0.03144494      -0.00270732
Al      19.18544126      17.14976790      11.31163669      -0.03460495      -0.02084886      -0.00180528
Al      19.14670828      19.14939080       9.15632099      -0.04006700      -0.03326716       0.01915974
Al      17.15000000      17.15000000      13.46153373      -0.06759273      -0.02888135      -0.36999148
Al      17.15000000      19.17500000      15.58982908       0.01565453       0.04351756       0.23550437
Al      19.17500000      17.15000000      15.58982908       0.04355428       0.01492530       0.23264048
Al      19.17500000      19.17500000      13.46153373       0.00167250       0.02430378      -0.30848292
Al      17.15000000      21.20000000       5.00000000       0.01154105      -0.33188015      -0.66175144
Al      17.15000000      23.22500000       7.02500000       0.01312681       0.49847550       0.66442724
Al      19.17500000      21.20000000       7.02500000      -0.01546371      -0.20334349       0.81831487
Al      19.17500000      23.22500000       5.00000000       0.03395524       0.20362912      -0.21061484
Al      17.14738171      21.21569826       9.16886804      -0.02288987      -0.00520746       0.02286124
Al      17.16546816      23.35508738      11.31852033      -0.00848958       0.00083317       0.00331022
Al      19.13752842      21.17817687      11.30683034      -0.02913828       0.00558400       0.01950769
Al      19.18011790      23.32523168       9.14366249      -0.00646659       0.01954195       0.00448214
Al      17.15000000      21.20000000      13.46153373      -0.02052520      -0.18785644      -0.41237273
Al      17.15000000      23.22500000      15.58982908       0.01581406       0.09366687      -0.17435069
Al      19.17500000      21.20000000      15.58982908       0.04106135      -0.33133297       0.17060586
Al      19.17500000      23.22500000      13.46153373      -0.03537547       0.34404184      -0.21903380
Al      21.20000000       5.00000000       5.00000000      -0.45416762      -0.10276584      -0.11977978
Al      21.20000000       7.02500000       7.02500000      -0.27184420       0.27184420       0.86348824
Al      23.22500000       5.00000000       7.02500000      -0.10183007       0.10183007       0.78538936
Al      23.22500000       7.02500000       5.00000000       0.10276584       0.45416762      -0.11977978
Al      21.14392939       4.95697263       9.14513943       0.00311283      -0.02558010       0.00225992
Al      21.14115547       7.08384453      11.29567869       0.00821053      -0.00821053       0.01869383
Al      23.14882120       5.07617880      11.28505097       0.00023983      -0.00023983      -0.00565209
Al      23.26802737       7.08107061       9.14513943       0.02558010      -0.00311283       0.00225992
Al      21.20000000       5.00000000      13.46153373      -0.34037747      -0.25102926      -0.30269679
Al      21.20000000       7.02500000      15.58982908      -0.32872776       0.32872776       0.11547543
Al      23.22500000       5.00000000      15.58982908      -0.46099846       0.46099846      -0.53451405
Al      23.22500000       7.02500000      13.46153373       0.25102926       0.34037747      -0.30269679
Al      21.20000000       9.05000000       5.00000000      -0.33064662      -0.03719539      -0.65910234
Al      21.20000000      11.07500000       7.02500000      -0.16393762       0.01212627       0.85314170
Al      23.22500000       9.05000000       7.02500000       0.47852559       0.03480713       0.57723647
Al      23.22500000      11.07500000       5.00000000       0.20682297      -0.01373950      -0.21045522
Al      21.19104033       9.07243851       9.16238947       0.01176092       0.02204413       0.00671150
Al      21.22810440      11.06615142      11.30029501       0.00440118       0.01814421       0.00825277
Al      23.33647759       9.03986229      11.32843571       0.01962871       0.00612419       0.01101126
Al      23.35126073      11.06049680       9.15226826       0.01424087       0.01055558       0.00820746
Al      21.20000000       9.05000000      13.46153373      -0.20405936       0.00297298      -0.36008878
Al      21.20000000      11.07500000      15.58982908      -0.33184851      -0.01475344       0.17191855
Al      23.22500000       9.05000000      15.58982908       0.08946604      -0.03665528      -0.17753234
Al      23.22500000      11.07500000      13.46153373       0.39091538      -0.01531461      -0.29669603
Al      21.20000000      13.10000000       5.00000000      -0.33266172      -0.00293034      -0.65827169
Al      21.20000000      15.12500000       7.02500000      -0.13675782       0.00043158       0.87121577
Al      23.22500000      13.10000000       7.02500000       0.51760121      -0.01625438       0.68189852
Al      23.22500000      15.12500000       5.00000000       0.20701181       0.00281434      -0.20925060
Al      21.23308391      13.09397512       9.16808461      -0.00340870       0.00592152       0.02459166
Al      21.23172168      15.12885807      11.29798285      -0.00242002      -0.00215923      -0.00092727
Al      23.35258772      13.09582483      11.31980935       0.00154813       0.00440735       0.00021171
Al      23.35098356      15.12896394       9.15085095       0.00589807      -0.00200652       0.01198306
Al      21.20000000      13.10000000      13.46153373      -0.13948636      -0.00442019      -0.41664906
Al      21.20000000      15.12500000      15.58982908      -0.33201693       0.00340213       0.17129038
Al      23.22500000      13.10000000      15.58982908       0.09463811      -0.00448885      -0.17544575
Al      23.22500000      15.12500000      13.46153373       0.39197109       0.01387672      -0.32508464
Al      21.20000000      17.15000000       5.00000000      -0.33171996       0.01083864      -0.66074148
Al      21.20000000      19.17500000       7.02500000      -0.19825127      -0.00467060       0.81537541
Al      23.22500000      17.15000000       7.02500000       0.51302779       0.01210278       0.65752472
Al      23.22500000      19.17500000       5.00000000       0.20394970       0.03375378      -0.20959520
Al      21.22619368      17.15795867       9.16651186       0.00003948      -0.01812179       0.01904852
Al      21.19928385      19.15977263      11.30627928       0.00994496      -0.01999877       0.02036977
Al      23.35065409      17.16345953      11.31852368       0.00398124      -0.00992104       0.00286566
Al      23.33556310      19.18462359       9.14276127       0.02331134      -0.00613102       0.00358096
Al      21.20000000      17.15000000      13.46153373      -0.14768771      -0.00842190      -0.38608948