299
Lattice="28.224999999999998 0.0 0.0 0.0 28.224999999999998 0.0 0.0 0.0 20.125" Properties=species:S:1:pos:R:3:forces:R:3 energy=-16440.549948780423 pbc="T T T"
Al       5.00000000       5.00000000       5.00000000       0.37496834       0.37531151       0.09888614
Al       5.00000000       7.02500000       7.02500000      -0.06320366       0.50880379       1.20487083
Al       7.02500000       5.00000000       7.02500000       0.49142363      -0.06677913       1.19181204
Al       7.02500000       7.02500000       5.00000000       0.32748249       0.32829844      -0.71228976
Al       5.41981350       5.42180532       9.51893128      -0.00603043       0.00839273      -0.00275926
Al       5.32655811       7.31250463      11.89469537      -0.01512002      -0.00122458       0.02048543
Al       7.21385762       5.07421294      11.93795375      -0.00552757      -0.00204055       0.01293693
Al       7.35465174       7.34538862       9.45506551      -0.02123879      -0.02790000       0.00430390
Al       5.00000000       5.00000000      14.32315115       0.85060642       0.89146761      -0.42470986
Al       5.00000000       7.02500000      16.69762290       0.24868958       0.47865269      -0.85984380
Al       7.02500000       5.00000000      16.69762290       0.47846776       0.23961853      -0.87947851
Al       7.02500000       7.02500000      14.32315115       0.51419653       0.45567581       0.00764313
Al       5.00000000       9.05000000       5.00000000      -0.17259340      -0.03450915      -0.32705977
Al       5.00000000      11.07500000       7.02500000      -0.24718263       0.01432986       1.35575872
Al       7.02500000       9.05000000       7.02500000       0.40379735       0.07929910       1.45559952
Al       7.02500000      11.07500000       5.00000000       0.33132696      -0.01603958      -0.75978938
Al       5.06669049       9.05799765       9.39323853      -0.00457923       0.00802329       0.00256884
Al       5.01813037      11.03062034      11.86559566      -0.00674528       0.00428713       0.00755002
Al       7.31604001       9.34092667      11.86799986       0.00570097       0.00014247       0.01874089
Al       7.09907047      11.09204155       9.40190343      -0.00724555       0.00042986       0.00856525
Al       5.00000000       9.05000000      14.32315115       0.14089961       0.12912198      -0.09542708
Al       5.00000000      11.07500000      16.69762290       0.13410647      -0.01756305      -0.77198737
Al       7.02500000       9.05000000      16.69762290       0.34853759      -0.03821291      -0.64718263
Al       7.02500000      11.07500000      14.32315115       0.38023813       0.08109367      -0.13170454
Al       5.00000000      13.10000000       5.00000000      -0.17644084      -0.00641651      -0.33782522
Al       5.00000000      15.12500000       7.02500000      -0.23389353       0.02884577       1.41701549
Al       7.02500000      13.10000000       7.02500000       0.33664667       0.02955133       1.58847536
Al       7.02500000      15.12500000       5.00000000       0.33355388       0.00449264      -0.76314391
Al       5.06082283      13.10042826       9.43351742      -0.00756420      -0.00662850       0.00827268
Al       5.12608482      15.14558706      11.87222129      -0.00130477       0.00393202       0.01305619
Al       7.09091523      13.04601279      11.87392178       0.01784930       0.01126742       0.01317909
Al       7.08742435      15.14564421       9.42582836       0.00870400      -0.00770256       0.01868730
Al       5.00000000      13.10000000      14.32315115       0.06984265      -0.02672705      -0.33273550
Al       5.00000000      15.12500000      16.69762290       0.13586541       0.00201022      -0.76534743
Al       7.02500000      13.10000000      16.69762290       0.35107687      -0.00699158      -0.64606306
Al       7.02500000      15.12500000      14.32315115       0.38753265       0.02343097      -0.25512248
Al       5.00000000      17.15000000       5.00000000      -0.17617450       0.01662142      -0.33633389
Al       5.00000000      19.17500000       7.02500000      -0.21921230      -0.18720004       1.08291320
Al       7.02500000      17.15000000       7.02500000       0.30610108      -0.08435980       1.47605511
Al       7.02500000      19.17500000       5.00000000       0.33270572       0.03687358      -0.74863990
Al       5.03621021      17.18586018       9.43913439       0.00064409      -0.00211925       0.01240102
Al       5.05506865      19.25427465      11.88494375      -0.01400346      -0.00649816       0.01150413
Al       7.10046682      17.24976071      11.87282891       0.01980380      -0.02150578       0.00894386
Al       7.19463837      19.04115350       9.36940764       0.00035287      -0.01543397       0.00196894
Al       5.00000000      17.15000000      14.32315115       0.07500568       0.05938488      -0.32624969
Al       5.00000000      19.17500000      16.69762290       0.13717804       0.03351906      -0.77008764
Al       7.02500000      17.15000000      16.69762290       0.35128571       0.01152233      -0.64300850
Al       7.02500000      19.17500000      14.32315115       0.38368090      -0.08719748       0.03737237
Al       5.00000000      21.20000000       5.00000000      -0.07156030      -0.45773943      -0.22485555
Al       5.00000000      23.22500000       7.02500000       0.46898981      -0.46898981       1.12484088
Al       7.02500000      21.20000000       7.02500000       0.48798314      -0.48798314       1.27210012
Al       7.02500000      23.22500000       5.00000000       0.45773943       0.07156030      -0.22485555
Al       5.17210469      20.97684954       9.34373275      -0.01490849       0.00199356      -0.01149656
Al       5.64589088      22.57910912      11.78807268       0.01216683      -0.01216683       0.04593299
Al       7.61325713      20.61174287      11.81915897       0.00801555      -0.00801555       0.01723213
Al       7.24815046      23.05289531       9.34373275      -0.00199356       0.01490849      -0.01149656
Al       5.00000000      21.20000000      14.32315115       0.22284417      -0.57183804       0.06803148
Al       5.00000000      23.22500000      16.69762290       0.74030904      -0.74030904      -0.80555606
Al       7.02500000      21.20000000      16.69762290       0.34285411      -0.34285411      -0.68234396
Al       7.02500000      23.22500000      14.32315115       0.57183804      -0.22284417       0.06803148
Al       9.05000000       5.00000000       5.00000000      -0.03616308      -0.17328899      -0.33061847
Al       9.05000000       7.02500000       7.02500000       0.05766169       0.37118081       1.46438956
Al      11.07500000       5.00000000       7.02500000      -0.02775772      -0.23393441       1.40657719
Al      11.07500000       7.02500000       5.00000000      -0.01447711       0.33182155      -0.76730328
Al       9.01467020       5.02132767       9.41226273       0.01074947       0.00729289       0.00450154
Al       9.08628036       7.14948328      11.91004464       0.00906896       0.01702015       0.01164667
Al      11.04520694       5.07192675      11.86803944       0.00895329      -0.00132234       0.00567213
Al      11.00869223       7.09038403       9.42891795       0.00286256      -0.00032043       0.01159143
Al       9.05000000       5.00000000      14.32315115       0.12298693       0.08949846      -0.05604759
Al       9.05000000       7.02500000      16.69762290      -0.03792041       0.34771559      -0.65197928
Al      11.07500000       5.00000000      16.69762290      -0.01669185       0.13566945      -0.77066615
Al      11.07500000       7.02500000      14.32315115       0.00088766       0.34461299      -0.17610450
Al       9.05000000       9.05000000       5.00000000      -0.03832207      -0.03737571      -0.82319662
Al       9.05000000      11.07500000       7.02500000       0.08422410       0.09319314       1.50450320
Al      11.07500000       9.05000000       7.02500000       0.06529025       0.04573435       1.55339289
Al      11.07500000      11.07500000       5.00000000      -0.01074451      -0.01230129      -0.81885792
Al       9.24703099       9.28194909       9.43536517       0.05064569       0.05172537       0.00418607
Al       9.35153080      11.34637822      11.86885307       0.01294941      -0.00942417       0.01134783
Al      11.08926520       9.10687690      11.89226627       0.01741483       0.02787036       0.01430411
Al      11.21827788      11.18547069       9.43788018      -0.01589855      -0.01561903       0.02105187
Al       9.05000000       9.05000000      14.32315115       0.08671098       0.11401559      -0.06422364
Al       9.05000000      11.07500000      16.69762290      -0.03602743      -0.01435169      -0.59235268
Al      11.07500000       9.05000000      16.69762290      -0.01467082      -0.03713218      -0.59477752
Al      11.07500000      11.07500000      14.32315115       0.16801562       0.10860197      -0.16915013
Al       9.05000000      13.10000000       5.00000000      -0.03578461      -0.00269242      -0.81779829
Al       9.05000000      15.12500000       7.02500000      -0.07878960      -0.06752476       1.38192605
Al      11.07500000      13.10000000       7.02500000      -0.06625788      -0.08586652       1.32351047
Al      11.07500000      15.12500000       5.00000000      -0.00953521       0.00395983      -0.77997653
Al       9.08976520      13.11545735       9.41591130       0.02486947       0.00507190       0.01567941
Al       9.06691114      15.15968800      11.86564322       0.01757124      -0.00794638       0.01355647
Al      11.42792530      13.42075852      11.81896414      -0.01018221      -0.03465409       0.01125823
Al      11.10481202      15.09340132       9.28529085       0.00864529      -0.01011229       0.01589968
Al       9.05000000      13.10000000      14.32315115       0.09522539       0.14119135      -0.18752956
Al       9.05000000      15.12500000      16.69762290      -0.03309937       0.00226953      -0.59090285
Al      11.07500000      13.10000000      16.69762290      -0.01145328      -0.00341582      -0.59091944
Al      11.07500000      15.12500000      14.32315115      -0.06289032      -0.04399574       0.18173269
Al       9.05000000      17.15000000       5.00000000      -0.03520642       0.01341578      -0.80678235
Al       9.05000000      19.17500000       7.02500000       0.11032190      -0.11032190       1.30582959
Al      11.07500000      17.15000000       7.02500000       0.00118903      -0.00118903       1.24632022
Al      11.07500000      19.17500000       5.00000000      -0.01341578       0.03520642      -0.80678235
Al       9.14917365      17.06302079       9.37319660       0.02901536       0.00898881       0.02201947
Al       9.61944457      18.60555543      11.82999017       0.05139763      -0.05139763      -0.00474300
Al      11.70095289      16.52404711      11.78940445       0.01217662      -0.01217662       0.00405961
Al      11.16197921      19.07582635       9.37319660      -0.00898881      -0.02901536       0.02201947
Al       9.05000000      17.15000000      14.32315115       0.05162783      -0.16884258       0.00928527
Al       9.05000000      19.17500000      16.69762290      -0.03271265       0.03271265      -0.58476485
Al      11.07500000      17.15000000      16.69762290      -0.01018640       0.01018640      -0.58673179
Al      11.07500000      19.17500000      14.32315115       0.16884258      -0.05162783       0.00928527
Al       9.05000000      21.20000000       5.00000000      -0.03687358      -0.33270572      -0.74863990
Al       9.05000000      23.22500000       7.02500000       0.18720004       0.21921230       1.08291320
Al      11.07500000      21.20000000       7.02500000       0.08435980      -0.30610108       1.47605511
Al      11.07500000      23.22500000       5.00000000      -0.01662142       0.17617450      -0.33633389
Al       9.18384650      21.03036163       9.36940764       0.01543397      -0.00035287       0.00196894
Al       8.97072535      23.16993135      11.88494375       0.00649816       0.01400346       0.01150413
Al      10.97523929      21.12453318      11.87282891       0.02150578      -0.01980380       0.00894386
Al      11.03913982      23.18878979       9.43913439       0.00211925      -0.00064409       0.01240102
Al       9.05000000      21.20000000      14.32315115       0.08719748      -0.38368090       0.03737237
Al       9.05000000      23.22500000      16.69762290      -0.03351906      -0.13717804      -0.77008764
Al      11.07500000      21.20000000      16.69762290      -0.01152233      -0.35128571      -0.64300850
Al      11.07500000      23.22500000      14.32315115      -0.05938488      -0.07500568      -0.32624969
Al      13.10000000       5.00000000       5.00000000      -0.00269918      -0.17359668      -0.34286976
Al      13.10000000       7.02500000       7.02500000      -0.01005676       0.33919862       1.60835676
Al      15.12500000       5.00000000       7.02500000       0.03216128      -0.24014976       1.43490752
Al      15.12500000       7.02500000       5.00000000       0.00939060       0.33460734      -0.76218308
Al      13.08855652       5.10622306       9.43449622      -0.00167488      -0.00195909       0.00656736
Al      13.08741121       7.11898401      11.88018589      -0.00050377       0.01570424       0.01198818
Al      15.13992321       5.10951955      11.86922838       0.01186731      -0.00737284       0.01195542
Al      15.17766361       7.08064336       9.42397809       0.00160982       0.00020633       0.01056383
Al      13.10000000       5.00000000      14.32315115      -0.01402483       0.08056969      -0.32833896
Al      13.10000000       7.02500000      16.69762290      -0.00408275       0.34947384      -0.64626343
Al      15.12500000       5.00000000      16.69762290       0.00557017       0.13659258      -0.76765524
Al      15.12500000       7.02500000      14.32315115       0.04891103       0.35321080      -0.21862702
Al      13.10000000       9.05000000       5.00000000       0.00016014      -0.03710133      -0.82473220
Al      13.10000000      11.07500000       7.02500000      -0.00146811      -0.07570937       1.42772624
Al      15.12500000       9.05000000       7.02500000      -0.06200354       0.00490689       1.51807885
Al      15.12500000      11.07500000       5.00000000       0.00683507      -0.01346654      -0.80673121
Al      13.09697272       9.02859530       9.42558491       0.01293934       0.01490983       0.01985807
Al      13.17453328      11.06663528      11.87750837       0.01319465       0.00392347       0.01419015
Al      15.21199812       9.03023367      11.87565015      -0.00571567       0.02650293       0.01646496
Al      15.04691310      11.13198618       9.39530098      -0.01571070       0.02032778       0.01484324
Al      13.10000000       9.05000000      14.32315115       0.04425103       0.00982706      -0.20596275
Al      13.10000000      11.07500000      16.69762290      -0.00369530      -0.01192025      -0.59584609
Al      15.12500000       9.05000000      16.69762290       0.00580295      -0.03693492      -0.59277324
Al      15.12500000      11.07500000      14.32315115      -0.12761642       0.06941005      -0.09420783
Al      13.10000000      13.10000000       5.00000000      -0.00093719      -0.00082769      -0.77606876
Al      13.10000000      15.12500000       7.02500000      -0.02046449       0.02046449       1.03242586
Al      15.12500000      13.10000000       7.02500000       0.06222682      -0.06222682       1.28053189
Al      15.12500000      15.12500000       5.00000000       0.00082769       0.00093719      -0.77606876
Al      13.11654605      13.15502221       9.29299516      -0.00199813      -0.00742999       0.01918386
Al      14.60222482      13.62277518      11.81186354       0.00562233      -0.00562233       0.01975674
Al      15.06997779      15.10845395       9.29299516       0.00742999       0.00199813       0.01918386
Al      13.10000000      13.10000000      14.32315115      -0.04759251      -0.02717592       0.17491846
Al      13.10000000      15.12500000      16.69762290      -0.00345679       0.00345679      -0.57720807
Al      15.12500000      13.10000000      16.69762290       0.00262989      -0.00262989      -0.59259078
Al      15.12500000      15.12500000      14.32315115       0.02717592       0.04759251       0.17491846
Al      13.10000000      17.15000000       5.00000000      -0.00395983       0.00953521      -0.77997653
Al      13.10000000      19.17500000       7.02500000       0.06752476       0.07878960       1.38192605
Al      15.12500000      17.15000000       7.02500000       0.08586652       0.06625788       1.32351047
Al      15.12500000      19.17500000       5.00000000       0.00269242       0.03578461      -0.81779829
Al      13.13159868      17.12018798       9.28529085       0.01011229      -0.00864529       0.01589968
Al      13.06531200      19.15808886      11.86564322       0.00794638      -0.01757124       0.01355647
Al      14.80424148      16.79707470      11.81896414       0.03465409       0.01018221       0.01125823
Al      15.10954265      19.13523480       9.41591130      -0.00507190      -0.02486947       0.01567941
Al      13.10000000      17.15000000      14.32315115       0.04399574       0.06289032       0.18173269
Al      13.10000000      19.17500000      16.69762290      -0.00226953       0.03309937      -0.59090285
Al      15.12500000      17.15000000      16.69762290       0.00341582       0.01145328      -0.59091944
Al      15.12500000      19.17500000      14.32315115      -0.14119135      -0.09522539      -0.18752956
Al      13.10000000      21.20000000       5.00000000      -0.00449264      -0.33355388      -0.76314391
Al      13.10000000      23.22500000       7.02500000      -0.02884577       0.23389353       1.41701549
Al      15.12500000      21.20000000       7.02500000      -0.02955133      -0.33664667       1.58847536
Al      15.12500000      23.22500000       5.00000000       0.00641651       0.17644084      -0.33782522
Al      13.07935579      21.13757565       9.42582836       0.00770256      -0.00870400       0.01868730
Al      13.07941294      23.09891518      11.87222129      -0.00393202       0.00130477       0.01305619
Al      15.17898721      21.13408477      11.87392178      -0.01126742      -0.01784930       0.01317909
Al      15.12457174      23.16417717       9.43351742       0.00662850       0.00756420       0.00827268
Al      13.10000000      21.20000000      14.32315115      -0.02343097      -0.38753265      -0.25512248
Al      13.10000000      23.22500000      16.69762290      -0.00201022      -0.13586541      -0.76534743
Al      15.12500000      21.20000000      16.69762290       0.00699158      -0.35107687      -0.64606306
Al      15.12500000      23.22500000      14.32315115       0.02672705      -0.06984265      -0.33273550
Al      17.15000000       5.00000000       5.00000000       0.01959560      -0.17445065      -0.33248608
Al      17.15000000       7.02500000       7.02500000      -0.04407221       0.31891121       1.49815711
Al      19.17500000       5.00000000       7.02500000      -0.15465135      -0.20615610       1.11109265
Al      19.17500000       7.02500000       5.00000000       0.03728360       0.33415667      -0.74853612
Al      17.19928173       5.01974220       9.43651285      -0.00015555      -0.00443928       0.01304493
Al      17.25508595       7.06176938      11.87913071      -0.00494530       0.00448636       0.01401582
Al      19.25598063       5.02395817      11.89192717      -0.00876755      -0.00558874       0.00953520
Al      19.04027803       7.19572155       9.38582256      -0.00601867       0.00195337       0.00285931
Al      17.15000000       5.00000000      14.32315115       0.05165228       0.05917969      -0.31364108
Al      17.15000000       7.02500000      16.69762290       0.01526262       0.35005307      -0.64682478
Al      19.17500000       5.00000000      16.69762290       0.03532141       0.13862030      -0.77605749
Al      19.17500000       7.02500000      14.32315115      -0.05839661       0.39471445      -0.03254590
Al      17.15000000       9.05000000       5.00000000       0.01778515      -0.03707523      -0.80962196
Al      17.15000000      11.07500000       7.02500000      -0.08924689       0.08924689       1.46204814
Al      19.17500000       9.05000000       7.02500000      -0.10313283       0.10313283       1.37031251
Al      19.17500000      11.07500000       5.00000000       0.03707523      -0.01778515      -0.80962196
Al      17.05946199       9.16807269       9.39055025       0.00572982       0.01934967       0.00964209
Al      16.72738573      11.49761427      11.84144005      -0.02522989       0.02522989       0.01467323
Al      18.75406283       9.47093717      11.83959528      -0.04778721       0.04778721       0.01692882
Al      19.05692731      11.16553801       9.39055025      -0.01934967      -0.00572982       0.00964209
Al      17.15000000       9.05000000      14.32315115      -0.09276723       0.06595815      -0.06809932
Al      17.15000000      11.07500000      16.69762290       0.01418032      -0.01418032      -0.59086047
Al      19.17500000       9.05000000      16.69762290       0.03639961      -0.03639961      -0.58930597
Al      19.17500000      11.07500000      14.32315115      -0.06595815       0.09276723      -0.06809932
Al      17.15000000      13.10000000       5.00000000       0.01346654      -0.00683507      -0.80673121
Al      17.15000000      15.12500000       7.02500000       0.07570937       0.00146811       1.42772624
Al      19.17500000      13.10000000       7.02500000      -0.00490689       0.06200354       1.51807885
Al      19.17500000      15.12500000       5.00000000       0.03710133      -0.00016014      -0.82473220
Al      17.09301382      13.17808690       9.39530098      -0.02032778       0.01571070       0.01484324
Al      17.15836472      15.05046672      11.87750837      -0.00392347      -0.01319465       0.01419015
Al      19.19476633      13.01300188      11.87565015      -0.02650293       0.00571567       0.01646496
Al      19.19640470      15.12802728       9.42558491      -0.01490983      -0.01293934       0.01985807
Al      17.15000000      13.10000000      14.32315115      -0.06941005       0.12761642      -0.09420783
Al      17.15000000      15.12500000      16.69762290       0.01192025       0.00369530      -0.59584609
Al      19.17500000      13.10000000      16.69762290       0.03693492      -0.00580295      -0.59277324
Al      19.17500000      15.12500000      14.32315115      -0.00982706      -0.04425103      -0.20596275
Al      17.15000000      17.15000000       5.00000000       0.01230129       0.01074451      -0.81885792
Al      17.15000000      19.17500000       7.02500000      -0.09319314      -0.08422410       1.50450320
Al      19.17500000      17.15000000       7.02500000      -0.04573435      -0.06529025       1.55339289
Al      19.17500000      19.17500000       5.00000000       0.03737571       0.03832207      -0.82319662
Al      17.03952931      17.00672212       9.43788018       0.01561903       0.01589855       0.02105187
Al      16.87862178      18.87346920      11.86885307       0.00942417      -0.01294941       0.01134783
Al      19.11812310      17.13573480      11.89226627      -0.02787036      -0.01741483       0.01430411
Al      18.94305091      18.97796901       9.43536517      -0.05172537      -0.05064569       0.00418607
Al      17.15000000      17.15000000      14.32315115      -0.10860197      -0.16801562      -0.16915013
Al      17.15000000      19.17500000      16.69762290       0.01435169       0.03602743      -0.59235268
Al      19.17500000      17.15000000      16.69762290       0.03713218       0.01467082      -0.59477752
Al      19.17500000      19.17500000      14.32315115      -0.11401559      -0.08671098      -0.06422364
Al      17.15000000      21.20000000       5.00000000       0.01603958      -0.33132696      -0.75978938
Al      17.15000000      23.22500000       7.02500000      -0.01432986       0.24718263       1.35575872
Al      19.17500000      21.20000000       7.02500000      -0.07929910      -0.40379735       1.45559952
Al      19.17500000      23.22500000       5.00000000       0.03450915       0.17259340      -0.32705977
Al      17.13295845      21.12592953       9.40190343      -0.00042986       0.00724555       0.00856525
Al      17.19437966      23.20686963      11.86559566      -0.00428713       0.00674528       0.00755002
Al      18.88407333      20.90895999      11.86799986      -0.00014247      -0.00570097       0.01874089
Al      19.16700235      23.15830951       9.39323853      -0.00802329       0.00457923       0.00256884
Al      17.15000000      21.20000000      14.32315115      -0.08109367      -0.38023813      -0.13170454
Al      17.15000000      23.22500000      16.69762290       0.01756305      -0.13410647      -0.77198737
Al      19.17500000      21.20000000      16.69762290       0.03821291      -0.34853759      -0.64718263
Al      19.17500000      23.22500000      14.32315115      -0.12912198      -0.14089961      -0.09542708
Al      21.20000000       5.00000000       5.00000000      -0.45826738      -0.06937626      -0.22550954
Al      21.20000000       7.02500000       7.02500000      -0.48793653       0.48793653       1.33282555
Al      23.22500000       5.00000000       7.02500000      -0.47079720       0.47079720       1.15086746
Al      23.22500000       7.02500000       5.00000000       0.06937626       0.45826738      -0.22550954
Al      20.98266303       5.17072449       9.35747998      -0.00411561       0.00208782      -0.00853014
Al      20.72383042       7.50116958      11.82658701       0.00992208      -0.00992208       0.01653297
Al      22.67530299       5.54969701      11.78983137      -0.02730511       0.02730511       0.03497371
Al      23.05427551       7.24233697       9.35747998      -0.00208782       0.00411561      -0.00853014
Al      21.20000000       5.00000000      14.32315115      -0.53855586       0.24874499       0.01168098
Al      21.20000000       7.02500000      16.69762290      -0.34320542       0.34320542      -0.68806375
Al      23.22500000       5.00000000      16.69762290      -0.74024820       0.74024820      -0.81840650
Al      23.22500000       7.02500000      14.32315115      -0.24874499       0.53855586       0.01168098
Al      21.20000000       9.05000000       5.00000000      -0.33415667      -0.03728360      -0.74853612
Al      21.20000000      11.07500000       7.02500000      -0.31891121       0.04407221       1.49815711
Al      23.22500000       9.05000000       7.02500000       0.20615610       0.15465135       1.11109265
Al      23.22500000      11.07500000       5.00000000       0.17445065      -0.01959560      -0.33248608
Al      21.02927845       9.18472197       9.38582256      -0.00195337       0.00601867       0.00285931
Al      21.16323062      10.96991405      11.87913071      -0.00448636       0.00494530       0.01401582
Al      23.20104183       8.96901937      11.89192717       0.00558874       0.00876755       0.00953520
Al      23.20525780      11.02571827       9.43651285       0.00443928       0.00015555       0.01304493
Al      21.20000000       9.05000000      14.32315115      -0.39471445       0.05839661      -0.03254590
Al      21.20000000      11.07500000      16.69762290      -0.35005307      -0.01526262      -0.64682478
Al      23.22500000       9.05000000      16.69762290      -0.13862030      -0.03532141      -0.77605749
Al      23.22500000      11.07500000      14.32315115      -0.05917969      -0.05165228      -0.31364108
Al      21.20000000      13.10000000       5.00000000      -0.33460734      -0.00939060      -0.76218308
Al      21.20000000      15.12500000       7.02500000      -0.33919862       0.01005676       1.60835676
Al      23.22500000      13.10000000       7.02500000       0.24014976      -0.03216128       1.43490752
Al      23.22500000      15.12500000       5.00000000       0.17359668       0.00269918      -0.34286976
Al      21.14435664      13.04733639       9.42397809      -0.00020633      -0.00160982       0.01056383
Al      21.10601599      15.13758879      11.88018589      -0.01570424       0.00050377       0.01198818
Al      23.11548045      13.08507679      11.86922838       0.00737284      -0.01186731       0.01195542
Al      23.11877694      15.13644348       9.43449622       0.00195909       0.00167488       0.00656736
Al      21.20000000      13.10000000      14.32315115      -0.35321080      -0.04891103      -0.21862702
Al      21.20000000      15.12500000      16.69762290      -0.34947384       0.00408275      -0.64626343
Al      23.22500000      13.10000000      16.69762290      -0.13659258      -0.00557017      -0.76765524
Al      23.22500000      15.12500000      14.32315115      -0.08056969       0.01402483      -0.32833896
Al      21.20000000      17.15000000       5.00000000      -0.33182155       0.01447711      -0.76730328
Al      21.20000000      19.17500000       7.02500000      -0.37118081      -0.05766169       1.46438956
Al      23.22500000      17.15000000       7.02500000       0.23393441       0.02775772       1.40657719
Al      23.22500000      19.17500000       5.00000000       0.17328899       0.03616308      -0.33061847
Al      21.13461597      17.21630777       9.42891795       0.00032043      -0.00286256       0.01159143
Al      21.07551672      19.13871964      11.91004464      -0.01702015      -0.00906896       0.01164667
Al      23.15307325      17.17979306      11.86803944       0.00132234      -0.00895329       0.00567213
Al      23.20367233      19.21032980       9.41226273      -0.00729289      -0.01074947       0.00450154
Al      21.20000000      17.15000000      14.32315115      -0.34461299      -0.00088766      -0.17610450