299
Lattice="28.224999999999998 0.0 0.0 0.0 28.224999999999998 0.0 0.0 0.0 20.125" Properties=species:S:1:pos:R:3 energy=-16444.21611798141 pbc="T T T"
Al       5.00000000       5.00000000       5.00000000
Al       5.00000000       7.02500000       7.02500000
Al       7.02500000       5.00000000       7.02500000
Al       7.02500000       7.02500000       5.00000000
Al       5.33835228       5.34665514       9.49174295
Al       5.22651580       7.25205923      11.85130155
Al       7.18508136       5.06866250      11.87415226
Al       7.28406547       7.27575253       9.42901588
Al       5.00000000       5.00000000      14.24086747
Al       5.00000000       7.02500000      16.59182961
Al       7.02500000       5.00000000      16.59182961
Al       7.02500000       7.02500000      14.24086747
Al       5.00000000       9.05000000       5.00000000
Al       5.00000000      11.07500000       7.02500000
Al       7.02500000       9.05000000       7.02500000
Al       7.02500000      11.07500000       5.00000000
Al       5.04169358       9.05958977       9.38382232
Al       4.99856870      11.03814345      11.81960064
Al       7.25041447       9.26379856      11.82831584
Al       7.09365620      11.08715800       9.39487608
Al       5.00000000       9.05000000      14.24086747
Al       5.00000000      11.07500000      16.59182961
Al       7.02500000       9.05000000      16.59182961
Al       7.02500000      11.07500000      14.24086747
Al       5.00000000      13.10000000       5.00000000
Al       5.00000000      15.12500000       7.02500000
Al       7.02500000      13.10000000       7.02500000
Al       7.02500000      15.12500000       5.00000000
Al       5.03416406      13.09356207       9.40988961
Al       5.06641519      15.13446578      11.82127017
Al       7.06812240      13.05638149      11.82561460
Al       7.07229809      15.14396763       9.40565348
Al       5.00000000      13.10000000      14.24086747
Al       5.00000000      15.12500000      16.59182961
Al       7.02500000      13.10000000      16.59182961
Al       7.02500000      15.12500000      14.24086747
Al       5.00000000      17.15000000       5.00000000
Al       5.00000000      19.17500000       7.02500000
Al       7.02500000      17.15000000       7.02500000
Al       7.02500000      19.17500000       5.00000000
Al       5.01238416      17.17995035       9.41368984
Al       5.01083905      19.22200740      11.83678433
Al       7.06654913      17.21371521      11.82849993
Al       7.16713194      19.06410171       9.37638558
Al       5.00000000      17.15000000      14.24086747
Al       5.00000000      19.17500000      16.59182961
Al       7.02500000      17.15000000      16.59182961
Al       7.02500000      19.17500000      14.24086747
Al       5.00000000      21.20000000       5.00000000
Al       5.00000000      23.22500000       7.02500000
Al       7.02500000      21.20000000       7.02500000
Al       7.02500000      23.22500000       5.00000000
Al       5.13449438      21.01344271       9.34641817
Al       5.45987920      22.76512080      11.74079736
Al       7.42248949      20.80251051      11.78910278
Al       7.21155729      23.09050562       9.34641817
Al       5.00000000      21.20000000      14.24086747
Al       5.00000000      23.22500000      16.59182961
Al       7.02500000      21.20000000      16.59182961
Al       7.02500000      23.22500000      14.24086747
Al       9.05000000       5.00000000       5.00000000
Al       9.05000000       7.02500000       7.02500000
Al      11.07500000       5.00000000       7.02500000
Al      11.07500000       7.02500000       5.00000000
Al       9.03142563       5.00586113       9.39304341
Al       9.09452326       7.12358654      11.84987387
Al      11.05168870       5.03262262      11.82039160
Al      11.03304264       7.07177748       9.40506962
Al       9.05000000       5.00000000      14.24086747
Al       9.05000000       7.02500000      16.59182961
Al      11.07500000       5.00000000      16.59182961
Al      11.07500000       7.02500000      14.24086747
Al       9.05000000       9.05000000       5.00000000
Al       9.05000000      11.07500000       7.02500000
Al      11.07500000       9.05000000       7.02500000
Al      11.07500000      11.07500000       5.00000000
Al       9.20232961       9.21730331       9.40866138
Al       9.29465659      11.29578365      11.82644706
Al      11.08459452       9.08868060      11.84156580
Al      11.17388935      11.16410351       9.41368748
Al       9.05000000       9.05000000      14.24086747
Al       9.05000000      11.07500000      16.59182961
Al      11.07500000       9.05000000      16.59182961
Al      11.07500000      11.07500000      14.24086747
Al       9.05000000      13.10000000       5.00000000
Al       9.05000000      15.12500000       7.02500000
Al      11.07500000      13.10000000       7.02500000
Al      11.07500000      15.12500000       5.00000000
Al       9.08550643      13.12160124       9.40326396
Al       9.04448935      15.14387829      11.82478368
Al      11.40410085      13.41968068      11.78160463
Al      11.10276555      15.10371172       9.28770967
Al       9.05000000      13.10000000      14.24086747
Al       9.05000000      15.12500000      16.59182961
Al      11.07500000      13.10000000      16.59182961
Al      11.07500000      15.12500000      14.24086747
Al       9.05000000      17.15000000       5.00000000
Al       9.05000000      19.17500000       7.02500000
Al      11.07500000      17.15000000       7.02500000
Al      11.07500000      19.17500000       5.00000000
Al       9.13593976      17.08072118       9.38421560
Al       9.42325773      18.80174227      11.80527719
Al      11.51618040      16.70881960      11.76425138
Al      11.14427882      19.08906024       9.38421560
Al       9.05000000      17.15000000      14.24086747
Al       9.05000000      19.17500000      16.59182961
Al      11.07500000      17.15000000      16.59182961
Al      11.07500000      19.17500000      14.24086747
Al       9.05000000      21.20000000       5.00000000
Al       9.05000000      23.22500000       7.02500000
Al      11.07500000      21.20000000       7.02500000
Al      11.07500000      23.22500000       5.00000000
Al       9.16089829      21.05786806       9.37638558
Al       9.00299260      23.21416095      11.83678433
Al      11.01128479      21.15845087      11.82849993
Al      11.04504965      23.21261584       9.41368984
Al       9.05000000      21.20000000      14.24086747
Al       9.05000000      23.22500000      16.59182961
Al      11.07500000      21.20000000      16.59182961
Al      11.07500000      23.22500000      14.24086747
Al      13.10000000       5.00000000       5.00000000
Al      13.10000000       7.02500000       7.02500000
Al      15.12500000       5.00000000       7.02500000
Al      15.12500000       7.02500000       5.00000000
Al      13.09215017       5.05566279       9.41048026
Al      13.08413240       7.08741448      11.82729575
Al      15.13229443       5.05864823      11.82107049
Al      15.15771122       7.07107747       9.40444203
Al      13.10000000       5.00000000      14.24086747
Al      13.10000000       7.02500000      16.59182961
Al      15.12500000       5.00000000      16.59182961
Al      15.12500000       7.02500000      14.24086747
Al      13.10000000       9.05000000       5.00000000
Al      13.10000000      11.07500000       7.02500000
Al      15.12500000       9.05000000       7.02500000
Al      15.12500000      11.07500000       5.00000000
Al      13.09220444       9.04271778       9.40162747
Al      13.13513892      11.06056576      11.83018196
Al      15.17355820       9.03237379      11.83105957
Al      15.07012681      11.11865441       9.39738239
Al      13.10000000       9.05000000      14.24086747
Al      13.10000000      11.07500000      16.59182961
Al      15.12500000       9.05000000      16.59182961
Al      15.12500000      11.07500000      14.24086747
Al      13.10000000      13.10000000       5.00000000
Al      13.10000000      15.12500000       7.02500000
Al      15.12500000      13.10000000       7.02500000
Al      15.12500000      15.12500000       5.00000000
Al      13.11428387      13.13921295       9.29694368
Al      14.74505322      13.47994678      11.78086848
Al      15.08578705      15.11071613       9.29694368
Al      13.10000000      13.10000000      14.24086747
Al      13.10000000      15.12500000      16.59182961
Al      15.12500000      13.10000000      16.59182961
Al      15.12500000      15.12500000      14.24086747
Al      13.10000000      17.15000000       5.00000000
Al      13.10000000      19.17500000       7.02500000
Al      15.12500000      17.15000000       7.02500000
Al      15.12500000      19.17500000       5.00000000
Al      13.12128828      17.12223445       9.28770967
Al      13.08112171      19.18051065      11.82478368
Al      14.80531932      16.82089915      11.78160463
Al      15.10339876      19.13949357       9.40326396
Al      13.10000000      17.15000000      14.24086747
Al      13.10000000      19.17500000      16.59182961
Al      15.12500000      17.15000000      16.59182961
Al      15.12500000      19.17500000      14.24086747
Al      13.10000000      21.20000000       5.00000000
Al      13.10000000      23.22500000       7.02500000
Al      15.12500000      21.20000000       7.02500000
Al      15.12500000      23.22500000       5.00000000
Al      13.08103237      21.15270191       9.40565348
Al      13.09053422      23.15858481      11.82127017
Al      15.16861851      21.15687760      11.82561460
Al      15.13143793      23.19083594       9.40988961
Al      13.10000000      21.20000000      14.24086747
Al      13.10000000      23.22500000      16.59182961
Al      15.12500000      21.20000000      16.59182961
Al      15.12500000      23.22500000      14.24086747
Al      17.15000000       5.00000000       5.00000000
Al      17.15000000       7.02500000       7.02500000
Al      19.17500000       5.00000000       7.02500000
Al      19.17500000       7.02500000       5.00000000
Al      17.18196331       5.00745468       9.41169011
Al      17.21162514       7.05173462      11.83053950
Al      19.21695226       5.00358784      11.83844612
Al      19.07292380       7.15855341       9.38304185
Al      17.15000000       5.00000000      14.24086747
Al      17.15000000       7.02500000      16.59182961
Al      19.17500000       5.00000000      16.59182961
Al      19.17500000       7.02500000      14.24086747
Al      17.15000000       9.05000000       5.00000000
Al      17.15000000      11.07500000       7.02500000
Al      19.17500000       9.05000000       7.02500000
Al      19.17500000      11.07500000       5.00000000
Al      17.08687200       9.13694050       9.38861316
Al      16.87339107      11.35160893      11.81538140
Al      18.90571665       9.31928335      11.81471127
Al      19.08805950      11.13812800       9.38861316
Al      17.15000000       9.05000000      14.24086747
Al      17.15000000      11.07500000      16.59182961
Al      19.17500000       9.05000000      16.59182961
Al      19.17500000      11.07500000      14.24086747
Al      17.15000000      13.10000000       5.00000000
Al      17.15000000      15.12500000       7.02500000
Al      19.17500000      13.10000000       7.02500000
Al      19.17500000      15.12500000       5.00000000
Al      17.10634559      13.15487319       9.39738239
Al      17.16443424      15.08986108      11.83018196
Al      19.19262621      13.05144180      11.83105957
Al      19.18228222      15.13279556       9.40162747
Al      17.15000000      13.10000000      14.24086747
Al      17.15000000      15.12500000      16.59182961
Al      19.17500000      13.10000000      16.59182961
Al      19.17500000      15.12500000      14.24086747
Al      17.15000000      17.15000000       5.00000000
Al      17.15000000      19.17500000       7.02500000
Al      19.17500000      17.15000000       7.02500000
Al      19.17500000      19.17500000       5.00000000
Al      17.06089649      17.05111065       9.41368748
Al      16.92921635      18.93034341      11.82644706
Al      19.13631940      17.14040548      11.84156580
Al      19.00769669      19.02267039       9.40866138
Al      17.15000000      17.15000000      14.24086747
Al      17.15000000      19.17500000      16.59182961
Al      19.17500000      17.15000000      16.59182961
Al      19.17500000      19.17500000      14.24086747
Al      17.15000000      21.20000000       5.00000000
Al      17.15000000      23.22500000       7.02500000
Al      19.17500000      21.20000000       7.02500000
Al      19.17500000      23.22500000       5.00000000
Al      17.13784200      21.13134380       9.39487608
Al      17.18685655      23.22643130      11.81960064
Al      18.96120144      20.97458553      11.82831584
Al      19.16541023      23.18330642       9.38382232
Al      17.15000000      21.20000000      14.24086747
Al      17.15000000      23.22500000      16.59182961
Al      19.17500000      21.20000000      16.59182961
Al      19.17500000      23.22500000      14.24086747
Al      21.20000000       5.00000000       5.00000000
Al      21.20000000       7.02500000       7.02500000
Al      23.22500000       5.00000000       7.02500000
Al      23.22500000       7.02500000       5.00000000
Al      21.02298738       5.12692452       9.35360819
Al      20.87124908       7.35375092      11.79715518
Al      22.81930191       5.40569809      11.74330442
Al      23.09807548       7.20201262       9.35360819
Al      21.20000000       5.00000000      14.24086747
Al      21.20000000       7.02500000      16.59182961
Al      23.22500000       5.00000000      16.59182961
Al      23.22500000       7.02500000      14.24086747
Al      21.20000000       9.05000000       5.00000000
Al      21.20000000      11.07500000       7.02500000
Al      23.22500000       9.05000000       7.02500000
Al      23.22500000      11.07500000       5.00000000
Al      21.06644659       9.15207620       9.38304185
Al      21.17326538      11.01337486      11.83053950
Al      23.22141216       9.00804774      11.83844612
Al      23.21754532      11.04303669       9.41169011
Al      21.20000000       9.05000000      14.24086747
Al      21.20000000      11.07500000      16.59182961
Al      23.22500000       9.05000000      16.59182961
Al      23.22500000      11.07500000      14.24086747
Al      21.20000000      13.10000000       5.00000000
Al      21.20000000      15.12500000       7.02500000
Al      23.22500000      13.10000000       7.02500000
Al      23.22500000      15.12500000       5.00000000
Al      21.15392253      13.06728878       9.40444203
Al      21.13758552      15.14086760      11.82729575
Al      23.16635177      13.09270557      11.82107049
Al      23.16933721      15.13284983       9.41048026
Al      21.20000000      13.10000000      14.24086747
Al      21.20000000      15.12500000      16.59182961
Al      23.22500000      13.10000000      16.59182961
Al      23.22500000      15.12500000      14.24086747
Al      21.20000000      17.15000000       5.00000000
Al      21.20000000      19.17500000       7.02500000
Al      23.22500000      17.15000000       7.02500000
Al      23.22500000      19.17500000       5.00000000
Al      21.15322252      17.19195736       9.40506962
Al      21.10141346      19.13047674      11.84987387
Al      23.19237738      17.17331130      11.82039160
Al      23.21913887      19.19357437       9.39304341
Al      21.20000000      17.15000000      14.24086747
Al      21.20000000      19.17500000      16.59182961
Al      23.22500000      17.15000000      16.59182961
Al      23.22500000      19.17500000      14.24086747
Al      21.20000000      21.20000000       5.00000000
Al      21.20000000      23.22500000       7.02500000
Al      23.22500000      21.20000000       7.02500000
Al      23.22500000      23.22500000       5.00000000
Al      20.94924747      20.94093453       9.42901588
Al      20.97294077      22.99848420      11.85130155
Al      23.15633750      21.03991864      11.87415226
Al      22.87834486      22.88664772       9.49174295
Al      21.20000000      21.20000000      14.24086747
Al      21.20000000      23.22500000      16.59182961
Al      23.22500000      21.20000000      16.59182961
Al      23.22500000      23.22500000      14.24086747
