299
Lattice="28.224999999999998 0.0 0.0 0.0 28.224999999999998 0.0 0.0 0.0 20.125" Properties=species:S:1:pos:R:3 energy=-16457.117608386576 pbc="T T T"
Al       5.00000000       5.00000000       5.00000000
Al       5.00000000       7.02500000       7.02500000
Al       7.02500000       5.00000000       7.02500000
Al       7.02500000       7.02500000       5.00000000
Al       5.18953941       5.19357956       9.37320445
Al       5.06818363       7.14811517      11.64236133
Al       7.12773877       5.02252985      11.64732876
Al       7.16244010       7.15951360       9.33061654
Al       5.00000000       5.00000000      13.91979941
Al       5.00000000       7.02500000      16.17902781
Al       7.02500000       5.00000000      16.17902781
Al       7.02500000       7.02500000      13.91979941
Al       5.00000000       9.05000000       5.00000000
Al       5.00000000      11.07500000       7.02500000
Al       7.02500000       9.05000000       7.02500000
Al       7.02500000      11.07500000       5.00000000
Al       4.97487277       9.04987744       9.30132629
Al       4.94789793      11.05469340      11.61728193
Al       7.12211126       9.13942277      11.62286002
Al       7.05435280      11.08166979       9.32136740
Al       5.00000000       9.05000000      13.91979941
Al       5.00000000      11.07500000      16.17902781
Al       7.02500000       9.05000000      16.17902781
Al       7.02500000      11.07500000      13.91979941
Al       5.00000000      13.10000000       5.00000000
Al       5.00000000      15.12500000       7.02500000
Al       7.02500000      13.10000000       7.02500000
Al       7.02500000      15.12500000       5.00000000
Al       4.95763508      13.09397139       9.31237242
Al       4.96692735      15.12960847      11.61677446
Al       7.02623137      13.08248603      11.61376080
Al       7.03370648      15.13205074       9.31936393
Al       5.00000000      13.10000000      13.91979941
Al       5.00000000      15.12500000      16.17902781
Al       7.02500000      13.10000000      16.17902781
Al       7.02500000      15.12500000      13.91979941
Al       5.00000000      17.15000000       5.00000000
Al       5.00000000      19.17500000       7.02500000
Al       7.02500000      17.15000000       7.02500000
Al       7.02500000      19.17500000       5.00000000
Al       4.95146320      17.16823882       9.31385737
Al       4.95642632      19.19207245      11.63100447
Al       7.03017403      17.17055104      11.61638705
Al       7.09418201      19.11961810       9.31299745
Al       5.00000000      17.15000000      13.91979941
Al       5.00000000      19.17500000      16.17902781
Al       7.02500000      17.15000000      16.17902781
Al       7.02500000      19.17500000      13.91979941
Al       5.00000000      21.20000000       5.00000000
Al       5.00000000      23.22500000       7.02500000
Al       7.02500000      21.20000000       7.02500000
Al       7.02500000      23.22500000       5.00000000
Al       5.04307541      21.08787788       9.28417616
Al       5.22573427      22.99926573      11.55583965
Al       7.20401575      21.02098425      11.60574233
Al       7.13712212      23.18192459       9.28417616
Al       5.00000000      21.20000000      13.91979941
Al       5.00000000      23.22500000      16.17902781
Al       7.02500000      21.20000000      16.17902781
Al       7.02500000      23.22500000      13.91979941
Al       9.05000000       5.00000000       5.00000000
Al       9.05000000       7.02500000       7.02500000
Al      11.07500000       5.00000000       7.02500000
Al      11.07500000       7.02500000       5.00000000
Al       9.04001988       4.95753852       9.30106778
Al       9.08336125       7.07411326      11.62514625
Al      11.05974940       4.95988656      11.61680636
Al      11.06185279       7.04032123       9.31881889
Al       9.05000000       5.00000000      13.91979941
Al       9.05000000       7.02500000      16.17902781
Al      11.07500000       5.00000000      16.17902781
Al      11.07500000       7.02500000      13.91979941
Al       9.05000000       9.05000000       5.00000000
Al       9.05000000      11.07500000       7.02500000
Al      11.07500000       9.05000000       7.02500000
Al      11.07500000      11.07500000       5.00000000
Al       9.12018838       9.12569623       9.31577579
Al       9.15763449      11.17925617      11.62477182
Al      11.08317182       9.05938943      11.62509300
Al      11.11610436      11.11748630       9.32739072
Al       9.05000000       9.05000000      13.91979941
Al       9.05000000      11.07500000      16.17902781
Al      11.07500000       9.05000000      16.17902781
Al      11.07500000      11.07500000      13.91979941
Al       9.05000000      13.10000000       5.00000000
Al       9.05000000      15.12500000       7.02500000
Al      11.07500000      13.10000000       7.02500000
Al      11.07500000      15.12500000       5.00000000
Al       9.06621780      13.11642199       9.32299026
Al       9.02406527      15.12676267      11.62188763
Al      11.27430192      13.30041212      11.60829776
Al      11.09644656      15.11642729       9.27081271
Al       9.05000000      13.10000000      13.91979941
Al       9.05000000      15.12500000      16.17902781
Al      11.07500000      13.10000000      16.17902781
Al      11.07500000      15.12500000      13.91979941
Al       9.05000000      17.15000000       5.00000000
Al       9.05000000      19.17500000       7.02500000
Al      11.07500000      17.15000000       7.02500000
Al      11.07500000      19.17500000       5.00000000
Al       9.08995859      17.11426228       9.32037250
Al       9.20241398      19.02258602      11.62310729
Al      11.30071869      16.92428131      11.60378049
Al      11.11073772      19.13504141       9.32037250
Al       9.05000000      17.15000000      13.91979941
Al       9.05000000      19.17500000      16.17902781
Al      11.07500000      17.15000000      16.17902781
Al      11.07500000      19.17500000      13.91979941
Al       9.05000000      21.20000000       5.00000000
Al       9.05000000      23.22500000       7.02500000
Al      11.07500000      21.20000000       7.02500000
Al      11.07500000      23.22500000       5.00000000
Al       9.10538190      21.13081799       9.31299745
Al       9.03292755      23.26857368      11.63100447
Al      11.05444896      21.19482597      11.61638705
Al      11.05676118      23.27353680       9.31385737
Al       9.05000000      21.20000000      13.91979941
Al       9.05000000      23.22500000      16.17902781
Al      11.07500000      21.20000000      16.17902781
Al      11.07500000      23.22500000      13.91979941
Al      13.10000000       5.00000000       5.00000000
Al      13.10000000       7.02500000       7.02500000
Al      15.12500000       5.00000000       7.02500000
Al      15.12500000       7.02500000       5.00000000
Al      13.09542167       4.96403295       9.31330492
Al      13.09307544       7.04009004      11.61268757
Al      15.12884835       4.96706567      11.61726096
Al      15.13582920       7.03597506       9.32023578
Al      13.10000000       5.00000000      13.91979941
Al      13.10000000       7.02500000      16.17902781
Al      15.12500000       5.00000000      16.17902781
Al      15.12500000       7.02500000      13.91979941
Al      13.10000000       9.05000000       5.00000000
Al      13.10000000      11.07500000       7.02500000
Al      15.12500000       9.05000000       7.02500000
Al      15.12500000      11.07500000       5.00000000
Al      13.09920494       9.04368329       9.31117385
Al      13.11061918      11.05358121      11.62069286
Al      15.13720254       9.03471660      11.62262235
Al      15.09936001      11.09905956       9.32402446
Al      13.10000000       9.05000000      13.91979941
Al      13.10000000      11.07500000      16.17902781
Al      15.12500000       9.05000000      16.17902781
Al      15.12500000      11.07500000      13.91979941
Al      13.10000000      13.10000000       5.00000000
Al      13.10000000      15.12500000       7.02500000
Al      15.12500000      13.10000000       7.02500000
Al      15.12500000      15.12500000       5.00000000
Al      13.10541112      13.12472565       9.27431223
Al      14.91983266      13.30516734      11.60960318
Al      15.10027435      15.11958888       9.27431223
Al      13.10000000      13.10000000      13.91979941
Al      13.10000000      15.12500000      16.17902781
Al      15.12500000      13.10000000      16.17902781
Al      15.12500000      15.12500000      13.91979941
Al      13.10000000      17.15000000       5.00000000
Al      13.10000000      19.17500000       7.02500000
Al      15.12500000      17.15000000       7.02500000
Al      15.12500000      19.17500000       5.00000000
Al      13.10857271      17.12855344       9.27081271
Al      13.09823733      19.20093473      11.62188763
Al      14.92458788      16.95069808      11.60829776
Al      15.10857801      19.15878220       9.32299026
Al      13.10000000      17.15000000      13.91979941
Al      13.10000000      19.17500000      16.17902781
Al      15.12500000      17.15000000      16.17902781
Al      15.12500000      19.17500000      13.91979941
Al      13.10000000      21.20000000       5.00000000
Al      13.10000000      23.22500000       7.02500000
Al      15.12500000      21.20000000       7.02500000
Al      15.12500000      23.22500000       5.00000000
Al      13.09294926      21.19129352       9.31936393
Al      13.09539153      23.25807265      11.61677446
Al      15.14251397      21.19876863      11.61376080
Al      15.13102861      23.26736492       9.31237242
Al      13.10000000      21.20000000      13.91979941
Al      13.10000000      23.22500000      16.17902781
Al      15.12500000      21.20000000      16.17902781
Al      15.12500000      23.22500000      13.91979941
Al      17.15000000       5.00000000       5.00000000
Al      17.15000000       7.02500000       7.02500000
Al      19.17500000       5.00000000       7.02500000
Al      19.17500000       7.02500000       5.00000000
Al      17.16701583       4.95167145       9.31396366
Al      17.16636255       7.03451662      11.61585702
Al      19.18831725       4.96012356      11.63040919
Al      19.12438338       7.08853088       9.31223578
Al      17.15000000       5.00000000      13.91979941
Al      17.15000000       7.02500000      16.17902781
Al      19.17500000       5.00000000      16.17902781
Al      19.17500000       7.02500000      13.91979941
Al      17.15000000       9.05000000       5.00000000
Al      17.15000000      11.07500000       7.02500000
Al      19.17500000       9.05000000       7.02500000
Al      19.17500000      11.07500000       5.00000000
Al      17.11967928       9.08656297       9.31499538
Al      17.03786691      11.18713309      11.62085799
Al      19.07070869       9.15429131      11.62327138
Al      19.13843703      11.10532072       9.31499538
Al      17.15000000       9.05000000      13.91979941
Al      17.15000000      11.07500000      16.17902781
Al      19.17500000       9.05000000      16.17902781
Al      19.17500000      11.07500000      13.91979941
Al      17.15000000      13.10000000       5.00000000
Al      17.15000000      15.12500000       7.02500000
Al      19.17500000      13.10000000       7.02500000
Al      19.17500000      15.12500000       5.00000000
Al      17.12594044      13.12563999       9.32402446
Al      17.17141879      15.11438082      11.62069286
Al      19.19028340      13.08779746      11.62262235
Al      19.18131671      15.12579506       9.31117385
Al      17.15000000      13.10000000      13.91979941
Al      17.15000000      15.12500000      16.17902781
Al      19.17500000      13.10000000      16.17902781
Al      19.17500000      15.12500000      13.91979941
Al      17.15000000      17.15000000       5.00000000
Al      17.15000000      19.17500000       7.02500000
Al      19.17500000      17.15000000       7.02500000
Al      19.17500000      19.17500000       5.00000000
Al      17.10751370      17.10889564       9.32739072
Al      17.04574383      19.06736551      11.62477182
Al      19.16561057      17.14182818      11.62509300
Al      19.09930377      19.10481162       9.31577579
Al      17.15000000      17.15000000      13.91979941
Al      17.15000000      19.17500000      16.17902781
Al      19.17500000      17.15000000      16.17902781
Al      19.17500000      19.17500000      13.91979941
Al      17.15000000      21.20000000       5.00000000
Al      17.15000000      23.22500000       7.02500000
Al      19.17500000      21.20000000       7.02500000
Al      19.17500000      23.22500000       5.00000000
Al      17.14333021      21.17064720       9.32136740
Al      17.17030660      23.27710207      11.61728193
Al      19.08557723      21.10288874      11.62286002
Al      19.17512256      23.25012723       9.30132629
Al      17.15000000      21.20000000      13.91979941
Al      17.15000000      23.22500000      16.17902781
Al      19.17500000      21.20000000      16.17902781
Al      19.17500000      23.22500000      13.91979941
Al      21.20000000       5.00000000       5.00000000
Al      21.20000000       7.02500000       7.02500000
Al      23.22500000       5.00000000       7.02500000
Al      23.22500000       7.02500000       5.00000000
Al      21.09291213       5.03733056       9.28548878
Al      21.04641231       7.17858769      11.60602073
Al      23.01752303       5.20747697      11.55826277
Al      23.18766944       7.13208787       9.28548878
Al      21.20000000       5.00000000      13.91979941
Al      21.20000000       7.02500000      16.17902781
Al      23.22500000       5.00000000      16.17902781
Al      23.22500000       7.02500000      13.91979941
Al      21.20000000       9.05000000       5.00000000
Al      21.20000000      11.07500000       7.02500000
Al      23.22500000       9.05000000       7.02500000
Al      23.22500000      11.07500000       5.00000000
Al      21.13646912       9.10061662       9.31223578
Al      21.19048338      11.05863745      11.61585702
Al      23.26487644       9.03668275      11.63040919
Al      23.27332855      11.05798417       9.31396366
Al      21.20000000       9.05000000      13.91979941
Al      21.20000000      11.07500000      16.17902781
Al      23.22500000       9.05000000      16.17902781
Al      23.22500000      11.07500000      13.91979941
Al      21.20000000      13.10000000       5.00000000
Al      21.20000000      15.12500000       7.02500000
Al      23.22500000      13.10000000       7.02500000
Al      23.22500000      15.12500000       5.00000000
Al      21.18902494      13.08917080       9.32023578
Al      21.18490996      15.13192456      11.61268757
Al      23.25793433      13.09615165      11.61726096
Al      23.26096705      15.12957833       9.31330492
Al      21.20000000      13.10000000      13.91979941
Al      21.20000000      15.12500000      16.17902781
Al      23.22500000      13.10000000      16.17902781
Al      23.22500000      15.12500000      13.91979941
Al      21.20000000      17.15000000       5.00000000
Al      21.20000000      19.17500000       7.02500000
Al      23.22500000      17.15000000       7.02500000
Al      23.22500000      19.17500000       5.00000000
Al      21.18467877      17.16314721       9.31881889
Al      21.15088674      19.14163875      11.62514625
Al      23.26511344      17.16525060      11.61680636
Al      23.26746148      19.18498012       9.30106778
Al      21.20000000      17.15000000      13.91979941
Al      21.20000000      19.17500000      16.17902781
Al      23.22500000      17.15000000      16.17902781
Al      23.22500000      19.17500000      13.91979941
Al      21.20000000      21.20000000       5.00000000
Al      21.20000000      23.22500000       7.02500000
Al      23.22500000      21.20000000       7.02500000
Al      23.22500000      23.22500000       5.00000000
Al      21.06548640      21.06255990       9.33061654
Al      21.07688483      23.15681637      11.64236133
Al      23.20247015      21.09726123      11.64732876
Al      23.03142044      23.03546059       9.37320445
Al      21.20000000      21.20000000      13.91979941
Al      21.20000000      23.22500000      16.17902781
Al      23.22500000      21.20000000      16.17902781
Al      23.22500000      23.22500000      13.91979941
