299
Lattice="28.224999999999998 0.0 0.0 0.0 28.224999999999998 0.0 0.0 0.0 20.125" Properties=species:S:1:pos:R:3 energy=-16402.689772768303 pbc="T T T"
Al       5.00000000       5.00000000       5.00000000
Al       5.00000000       7.02500000       7.02500000
Al       7.02500000       5.00000000       7.02500000
Al       7.02500000       7.02500000       5.00000000
Al       5.74490329       5.72824420       9.73157816
Al       5.40045491       7.36842159      12.39322839
Al       7.42706446       5.26859192      12.33960618
Al       7.73376112       7.54790346       9.77579399
Al       5.00000000       5.00000000      15.01174432
Al       5.00000000       7.02500000      17.58295698
Al       7.02500000       5.00000000      17.58295698
Al       7.02500000       7.02500000      15.01174432
Al       5.00000000       9.05000000       5.00000000
Al       5.00000000      11.07500000       7.02500000
Al       7.02500000       9.05000000       7.02500000
Al       7.02500000      11.07500000       5.00000000
Al       5.28243058       9.02044243       9.63714256
Al       5.13966416      11.10118716      12.30745463
Al       7.35406087       9.35293577      12.30923029
Al       6.98011046      11.37663752       9.64807231
Al       5.00000000       9.05000000      15.01174432
Al       5.00000000      11.07500000      17.58295698
Al       7.02500000       9.05000000      17.58295698
Al       7.02500000      11.07500000      15.01174432
Al       5.00000000      13.10000000       5.00000000
Al       5.00000000      15.12500000       7.02500000
Al       7.02500000      13.10000000       7.02500000
Al       7.02500000      15.12500000       5.00000000
Al       4.99469555      13.41088893       9.69907850
Al       5.12626784      15.33721476      12.39508070
Al       7.05009613      13.26351003      12.37199492
Al       7.50414673      14.80462966       9.69776625
Al       5.00000000      13.10000000      15.01174432
Al       5.00000000      15.12500000      17.58295698
Al       7.02500000      13.10000000      17.58295698
Al       7.02500000      15.12500000      15.01174432
Al       5.00000000      17.15000000       5.00000000
Al       5.00000000      19.17500000       7.02500000
Al       7.02500000      17.15000000       7.02500000
Al       7.02500000      19.17500000       5.00000000
Al       5.44389595      16.85831802       9.65019135
Al       5.50609166      18.85441557      12.25165345
Al       7.55503864      16.85944136      12.26668896
Al       7.10004338      19.18106313       9.55770351
Al       5.00000000      17.15000000      15.01174432
Al       5.00000000      19.17500000      17.58295698
Al       7.02500000      17.15000000      17.58295698
Al       7.02500000      19.17500000      15.01174432
Al       5.00000000      21.20000000       5.00000000
Al       5.00000000      23.22500000       7.02500000
Al       7.02500000      21.20000000       7.02500000
Al       7.02500000      23.22500000       5.00000000
Al       5.09958674      21.05351466       9.48419294
Al       6.63819019      21.58680981      12.25384656
Al       8.63439614      19.59060386      12.30535101
Al       7.17148534      23.12541326       9.48419294
Al       5.00000000      21.20000000      15.01174432
Al       5.00000000      23.22500000      17.58295698
Al       7.02500000      21.20000000      17.58295698
Al       7.02500000      23.22500000      15.01174432
Al       9.05000000       5.00000000       5.00000000
Al       9.05000000       7.02500000       7.02500000
Al      11.07500000       5.00000000       7.02500000
Al      11.07500000       7.02500000       5.00000000
Al       9.14173310       5.08658631       9.58255701
Al       9.26915877       7.33517284      12.47545309
Al      11.04085667       5.15722447      12.30060943
Al      10.86139489       7.43882094       9.71233788
Al       9.05000000       5.00000000      15.01174432
Al       9.05000000       7.02500000      17.58295698
Al      11.07500000       5.00000000      17.58295698
Al      11.07500000       7.02500000      15.01174432
Al       9.05000000       9.05000000       5.00000000
Al       9.05000000      11.07500000       7.02500000
Al      11.07500000       9.05000000       7.02500000
Al      11.07500000      11.07500000       5.00000000
Al       9.22272506       9.76209750       9.77041915
Al       9.13970890      11.44444534      12.47608280
Al      11.08707415       9.43116016      12.34493520
Al      11.69823894      10.88148066       9.69338634
Al       9.05000000       9.05000000      15.01174432
Al       9.05000000      11.07500000      17.58295698
Al      11.07500000       9.05000000      17.58295698
Al      11.07500000      11.07500000      15.01174432
Al       9.05000000      13.10000000       5.00000000
Al       9.05000000      15.12500000       7.02500000
Al      11.07500000      13.10000000       7.02500000
Al      11.07500000      15.12500000       5.00000000
Al       9.52628762      12.79014269       9.68938039
Al       9.49348247      14.81294064      12.32759279
Al      11.56132009      12.87598823      12.28045367
Al      10.93851172      15.27048661       9.57807351
Al       9.05000000      13.10000000      15.01174432
Al       9.05000000      15.12500000      17.58295698
Al      11.07500000      13.10000000      17.58295698
Al      11.07500000      15.12500000      15.01174432
Al       9.05000000      17.15000000       5.00000000
Al       9.05000000      19.17500000       7.02500000
Al      11.07500000      17.15000000       7.02500000
Al      11.07500000      19.17500000       5.00000000
Al       8.99410297      17.22752685       9.52500620
Al      10.63559565      17.58940435      12.23417920
Al      12.61904567      15.60595433      12.25987815
Al      10.99747315      19.23089703       9.52500620
Al       9.05000000      17.15000000      15.01174432
Al       9.05000000      19.17500000      17.58295698
Al      11.07500000      17.15000000      17.58295698
Al      11.07500000      19.17500000      15.01174432
Al       9.05000000      21.20000000       5.00000000
Al       9.05000000      23.22500000       7.02500000
Al      11.07500000      21.20000000       7.02500000
Al      11.07500000      23.22500000       5.00000000
Al       9.04393687      21.12495662       9.55770351
Al       9.37058443      22.71890834      12.25165345
Al      11.36555864      20.66996136      12.26668896
Al      11.36668198      22.78110405       9.65019135
Al       9.05000000      21.20000000      15.01174432
Al       9.05000000      23.22500000      17.58295698
Al      11.07500000      21.20000000      17.58295698
Al      11.07500000      23.22500000      15.01174432
Al      13.10000000       5.00000000       5.00000000
Al      13.10000000       7.02500000       7.02500000
Al      15.12500000       5.00000000       7.02500000
Al      15.12500000       7.02500000       5.00000000
Al      12.97098837       5.48916065       9.71388074
Al      12.94925653       7.31712371      12.43646272
Al      15.10566247       5.39977160      12.29704276
Al      15.53265477       6.89459702       9.60165613
Al      13.10000000       5.00000000      15.01174432
Al      13.10000000       7.02500000      17.58295698
Al      15.12500000       5.00000000      17.58295698
Al      15.12500000       7.02500000      15.01174432
Al      13.10000000       9.05000000       5.00000000
Al      13.10000000      11.07500000       7.02500000
Al      15.12500000       9.05000000       7.02500000
Al      15.12500000      11.07500000       5.00000000
Al      13.45719795       8.73765241       9.69773609
Al      13.52434900      10.87690733      12.38847221
Al      15.41258187       8.84420465      12.33082415
Al      14.88950238      11.28908304       9.59192771
Al      13.10000000       9.05000000      15.01174432
Al      13.10000000      11.07500000      17.58295698
Al      15.12500000       9.05000000      17.58295698
Al      15.12500000      11.07500000      15.01174432
Al      13.10000000      13.10000000       5.00000000
Al      13.10000000      15.12500000       7.02500000
Al      15.12500000      13.10000000       7.02500000
Al      15.12500000      15.12500000       5.00000000
Al      12.93837385      13.33735382       9.53344404
Al      14.61201018      13.61298982      12.21543920
Al      14.88764618      15.28662615       9.53344404
Al      13.10000000      13.10000000      15.01174432
Al      13.10000000      15.12500000      17.58295698
Al      15.12500000      13.10000000      17.58295698
Al      15.12500000      15.12500000      15.01174432
Al      13.10000000      17.15000000       5.00000000
Al      13.10000000      19.17500000       7.02500000
Al      15.12500000      17.15000000       7.02500000
Al      15.12500000      19.17500000       5.00000000
Al      12.95451339      17.28648828       9.57807351
Al      13.41205936      18.73151753      12.32759279
Al      15.34901177      16.66367991      12.28045367
Al      15.43485731      18.69871238       9.68938039
Al      13.10000000      17.15000000      15.01174432
Al      13.10000000      19.17500000      17.58295698
Al      15.12500000      17.15000000      17.58295698
Al      15.12500000      19.17500000      15.01174432
Al      13.10000000      21.20000000       5.00000000
Al      13.10000000      23.22500000       7.02500000
Al      15.12500000      21.20000000       7.02500000
Al      15.12500000      23.22500000       5.00000000
Al      13.42037034      20.72085327       9.69776625
Al      12.88778524      23.09873216      12.39508070
Al      14.96148997      21.17490387      12.37199492
Al      14.81411107      23.23030445       9.69907850
Al      13.10000000      21.20000000      15.01174432
Al      13.10000000      23.22500000      17.58295698
Al      15.12500000      21.20000000      17.58295698
Al      15.12500000      23.22500000      15.01174432
Al      17.15000000       5.00000000       5.00000000
Al      17.15000000       7.02500000       7.02500000
Al      19.17500000       5.00000000       7.02500000
Al      19.17500000       7.02500000       5.00000000
Al      17.51826390       4.89440853       9.75880943
Al      17.48330607       7.02418587      12.36009955
Al      19.40796091       5.02295736      12.44406889
Al      18.87229084       7.37430805       9.58109713
Al      17.15000000       5.00000000      15.01174432
Al      17.15000000       7.02500000      17.58295698
Al      19.17500000       5.00000000      17.58295698
Al      19.17500000       7.02500000      15.01174432
Al      17.15000000       9.05000000       5.00000000
Al      17.15000000      11.07500000       7.02500000
Al      19.17500000       9.05000000       7.02500000
Al      19.17500000      11.07500000       5.00000000
Al      16.89557747       9.34372022       9.60929888
Al      16.59186036      11.63313964      12.24566183
Al      18.52889695       9.69610305      12.24884908
Al      18.88127978      11.32942253       9.60929888
Al      17.15000000       9.05000000      15.01174432
Al      17.15000000      11.07500000      17.58295698
Al      19.17500000       9.05000000      17.58295698
Al      19.17500000      11.07500000      15.01174432
Al      17.15000000      13.10000000       5.00000000
Al      17.15000000      15.12500000       7.02500000
Al      19.17500000      13.10000000       7.02500000
Al      19.17500000      15.12500000       5.00000000
Al      16.93591696      13.33549762       9.59192771
Al      17.34809267      14.70065100      12.38847221
Al      19.38079535      12.81241813      12.33082415
Al      19.48734759      14.76780205       9.69773609
Al      17.15000000      13.10000000      15.01174432
Al      17.15000000      15.12500000      17.58295698
Al      19.17500000      13.10000000      17.58295698
Al      19.17500000      15.12500000      15.01174432
Al      17.15000000      17.15000000       5.00000000
Al      17.15000000      19.17500000       7.02500000
Al      19.17500000      17.15000000       7.02500000
Al      19.17500000      19.17500000       5.00000000
Al      17.34351934      16.52676106       9.69338634
Al      16.78055466      19.08529110      12.47608280
Al      18.79383984      17.13792585      12.34493520
Al      18.46290250      19.00227494       9.77041915
Al      17.15000000      17.15000000      15.01174432
Al      17.15000000      19.17500000      17.58295698
Al      19.17500000      17.15000000      17.58295698
Al      19.17500000      19.17500000      15.01174432
Al      17.15000000      21.20000000       5.00000000
Al      17.15000000      23.22500000       7.02500000
Al      19.17500000      21.20000000       7.02500000
Al      19.17500000      23.22500000       5.00000000
Al      16.84836248      21.24488954       9.64807231
Al      17.12381284      23.08533584      12.30745463
Al      18.87206423      20.87093913      12.30923029
Al      19.20455757      22.94256942       9.63714256
Al      17.15000000      21.20000000      15.01174432
Al      17.15000000      23.22500000      17.58295698
Al      19.17500000      21.20000000      17.58295698
Al      19.17500000      23.22500000      15.01174432
Al      21.20000000       5.00000000       5.00000000
Al      21.20000000       7.02500000       7.02500000
Al      23.22500000       5.00000000       7.02500000
Al      23.22500000       7.02500000       5.00000000
Al      20.81902736       5.35658599       9.61639216
Al      20.47532971       7.74967029      12.21264894
Al      22.41005522       5.81494478      12.27487742
Al      22.86841401       7.40597264       9.61639216
Al      21.20000000       5.00000000      15.01174432
Al      21.20000000       7.02500000      17.58295698
Al      23.22500000       5.00000000      17.58295698
Al      23.22500000       7.02500000      15.01174432
Al      21.20000000       9.05000000       5.00000000
Al      21.20000000      11.07500000       7.02500000
Al      23.22500000       9.05000000       7.02500000
Al      23.22500000      11.07500000       5.00000000
Al      20.85069195       9.35270916       9.58109713
Al      21.20081413      10.74169393      12.36009955
Al      23.20204264       8.81703909      12.44406889
Al      23.33059147      10.70673610       9.75880943
Al      21.20000000       9.05000000      15.01174432
Al      21.20000000      11.07500000      17.58295698
Al      23.22500000       9.05000000      17.58295698
Al      23.22500000      11.07500000      15.01174432
Al      21.20000000      13.10000000       5.00000000
Al      21.20000000      15.12500000       7.02500000
Al      23.22500000      13.10000000       7.02500000
Al      23.22500000      15.12500000       5.00000000
Al      21.33040298      12.69234523       9.60165613
Al      20.90787629      15.27574347      12.43646272
Al      22.82522840      13.11933753      12.29704276
Al      22.73583935      15.25401163       9.71388074
Al      21.20000000      13.10000000      15.01174432
Al      21.20000000      15.12500000      17.58295698
Al      23.22500000      13.10000000      17.58295698
Al      23.22500000      15.12500000      15.01174432
Al      21.20000000      17.15000000       5.00000000
Al      21.20000000      19.17500000       7.02500000
Al      23.22500000      17.15000000       7.02500000
Al      23.22500000      19.17500000       5.00000000
Al      20.78617906      17.36360511       9.71233788
Al      20.88982716      18.95584123      12.47545309
Al      23.06777553      17.18414333      12.30060943
Al      23.13841369      19.08326690       9.58255701
Al      21.20000000      17.15000000      15.01174432
Al      21.20000000      19.17500000      17.58295698
Al      23.22500000      17.15000000      17.58295698
Al      23.22500000      19.17500000      15.01174432
Al      21.20000000      21.20000000       5.00000000
Al      21.20000000      23.22500000       7.02500000
Al      23.22500000      21.20000000       7.02500000
Al      23.22500000      23.22500000       5.00000000
Al      20.67709654      20.49123888       9.77579399
Al      20.85657841      22.82454509      12.39322839
Al      22.95640808      20.79793554      12.33960618
Al      22.49675580      22.48009671       9.73157816
Al      21.20000000      21.20000000      15.01174432
Al      21.20000000      23.22500000      17.58295698
Al      23.22500000      21.20000000      17.58295698
Al      23.22500000      23.22500000      15.01174432
