299
Lattice="28.224999999999998 0.0 0.0 0.0 28.224999999999998 0.0 0.0 0.0 20.125" Properties=species:S:1:pos:R:3 energy=-16465.603089554505 pbc="T T T"
Al       5.00000000       5.00000000       5.00000000
Al       5.00000000       7.02500000       7.02500000
Al       7.02500000       5.00000000       7.02500000
Al       7.02500000       7.02500000       5.00000000
Al       5.07796612       5.07983281       9.25400435
Al       4.96805250       7.08762574      11.43363230
Al       7.08026723       4.95137139      11.43486439
Al       7.08351021       7.08223734       9.23744671
Al       5.00000000       5.00000000      13.61125931
Al       5.00000000       7.02500000      15.78233340
Al       7.02500000       5.00000000      15.78233340
Al       7.02500000       7.02500000      13.61125931
Al       5.00000000       9.05000000       5.00000000
Al       5.00000000      11.07500000       7.02500000
Al       7.02500000       9.05000000       7.02500000
Al       7.02500000      11.07500000       5.00000000
Al       4.90200179       9.04483024       9.20557147
Al       4.87247001      11.05941080      11.42468786
Al       7.04825932       9.08874016      11.41332128
Al       7.01032469      11.07780081       9.23151534
Al       5.00000000       9.05000000      13.61125931
Al       5.00000000      11.07500000      15.78233340
Al       7.02500000       9.05000000      15.78233340
Al       7.02500000      11.07500000      13.61125931
Al       5.00000000      13.10000000       5.00000000
Al       5.00000000      15.12500000       7.02500000
Al       7.02500000      13.10000000       7.02500000
Al       7.02500000      15.12500000       5.00000000
Al       4.87320376      13.09461181       9.21220305
Al       4.87490495      15.12903934      11.42535969
Al       6.98598818      13.09044936      11.40456981
Al       6.99081508      15.12901624       9.22943551
Al       5.00000000      13.10000000      13.61125931
Al       5.00000000      15.12500000      15.78233340
Al       7.02500000      13.10000000      15.78233340
Al       7.02500000      15.12500000      13.61125931
Al       5.00000000      17.15000000       5.00000000
Al       5.00000000      19.17500000       7.02500000
Al       7.02500000      17.15000000       7.02500000
Al       7.02500000      19.17500000       5.00000000
Al       4.87540491      17.16505267       9.21392744
Al       4.88836439      19.18655405      11.43516222
Al       6.99277490      17.16140707      11.40687227
Al       7.03981009      19.14797078       9.22632582
Al       5.00000000      17.15000000      13.61125931
Al       5.00000000      19.17500000      15.78233340
Al       7.02500000      17.15000000      15.78233340
Al       7.02500000      19.17500000      13.61125931
Al       5.00000000      21.20000000       5.00000000
Al       5.00000000      23.22500000       7.02500000
Al       7.02500000      21.20000000       7.02500000
Al       7.02500000      23.22500000       5.00000000
Al       4.96383654      21.13961722       9.20644755
Al       5.08699083      23.13800917      11.38790298
Al       7.09758368      21.12741632      11.40269518
Al       7.08538278      23.26116346       9.20644755
Al       5.00000000      21.20000000      13.61125931
Al       5.00000000      23.22500000      15.78233340
Al       7.02500000      21.20000000      15.78233340
Al       7.02500000      23.22500000      13.61125931
Al       9.05000000       5.00000000       5.00000000
Al       9.05000000       7.02500000       7.02500000
Al      11.07500000       5.00000000       7.02500000
Al      11.07500000       7.02500000       5.00000000
Al       9.04025091       4.89149048       9.20464265
Al       9.06573125       7.02648018      11.41282753
Al      11.06150133       4.87705163      11.42468080
Al      11.06697624       6.99964989       9.22901400
Al       9.05000000       5.00000000      13.61125931
Al       9.05000000       7.02500000      15.78233340
Al      11.07500000       5.00000000      15.78233340
Al      11.07500000       7.02500000      13.61125931
Al       9.05000000       9.05000000       5.00000000
Al       9.05000000      11.07500000       7.02500000
Al      11.07500000       9.05000000       7.02500000
Al      11.07500000      11.07500000       5.00000000
Al       9.07682577       9.07965554       9.21883478
Al       9.09386770      11.12680429      11.42011281
Al      11.07541913       9.04003769      11.41803853
Al      11.09284906      11.09609300       9.23127101
Al       9.05000000       9.05000000      13.61125931
Al       9.05000000      11.07500000      15.78233340
Al      11.07500000       9.05000000      15.78233340
Al      11.07500000      11.07500000      13.61125931
Al       9.05000000      13.10000000       5.00000000
Al       9.05000000      15.12500000       7.02500000
Al      11.07500000      13.10000000       7.02500000
Al      11.07500000      15.12500000       5.00000000
Al       9.05097751      13.11220764       9.22857640
Al       9.01007989      15.12534350      11.41947489
Al      11.19451173      13.22464482      11.42305826
Al      11.09639578      15.12257672       9.22038381
Al       9.05000000      13.10000000      13.61125931
Al       9.05000000      15.12500000      15.78233340
Al      11.07500000      13.10000000      15.78233340
Al      11.07500000      15.12500000      13.61125931
Al       9.05000000      17.15000000       5.00000000
Al       9.05000000      19.17500000       7.02500000
Al      11.07500000      17.15000000       7.02500000
Al      11.07500000      19.17500000       5.00000000
Al       9.06428986      17.13136111       9.22831406
Al       9.11628841      19.10871159      11.42190843
Al      11.20480471      17.02019529      11.42201737
Al      11.09363889      19.16071014       9.22831406
Al       9.05000000      17.15000000      13.61125931
Al       9.05000000      19.17500000      15.78233340
Al      11.07500000      17.15000000      15.78233340
Al      11.07500000      19.17500000      13.61125931
Al       9.05000000      21.20000000       5.00000000
Al       9.05000000      23.22500000       7.02500000
Al      11.07500000      21.20000000       7.02500000
Al      11.07500000      23.22500000       5.00000000
Al       9.07702922      21.18518991       9.22632582
Al       9.03844595      23.33663561      11.43516222
Al      11.06359293      21.23222510      11.40687227
Al      11.05994733      23.34959509       9.21392744
Al       9.05000000      21.20000000      13.61125931
Al       9.05000000      23.22500000      15.78233340
Al      11.07500000      21.20000000      15.78233340
Al      11.07500000      23.22500000      13.61125931
Al      13.10000000       5.00000000       5.00000000
Al      13.10000000       7.02500000       7.02500000
Al      15.12500000       5.00000000       7.02500000
Al      15.12500000       7.02500000       5.00000000
Al      13.09596509       4.87662763       9.21306552
Al      13.09596107       6.99400601      11.40421913
Al      15.12917186       4.87529989      11.42593213
Al      15.13122350       6.99275586       9.23074211
Al      13.10000000       5.00000000      13.61125931
Al      13.10000000       7.02500000      15.78233340
Al      15.12500000       5.00000000      15.78233340
Al      15.12500000       7.02500000      13.61125931
Al      13.10000000       9.05000000       5.00000000
Al      13.10000000      11.07500000       7.02500000
Al      15.12500000       9.05000000       7.02500000
Al      15.12500000      11.07500000       5.00000000
Al      13.09970486       9.03119066       9.21593511
Al      13.10323355      11.04524719      11.41818382
Al      15.13134280       9.02643174      11.41703544
Al      15.10989381      11.08752577       9.22977135
Al      13.10000000       9.05000000      13.61125931
Al      13.10000000      11.07500000      15.78233340
Al      15.12500000       9.05000000      15.78233340
Al      15.12500000      11.07500000      13.61125931
Al      13.10000000      13.10000000       5.00000000
Al      13.10000000      15.12500000       7.02500000
Al      15.12500000      13.10000000       7.02500000
Al      15.12500000      15.12500000       5.00000000
Al      13.10073477      13.12665948       9.22181839
Al      14.99998600      13.22501400      11.42345276
Al      15.09834052      15.12426523       9.22181839
Al      13.10000000      13.10000000      13.61125931
Al      13.10000000      15.12500000      15.78233340
Al      15.12500000      13.10000000      15.78233340
Al      15.12500000      15.12500000      13.61125931
Al      13.10000000      17.15000000       5.00000000
Al      13.10000000      19.17500000       7.02500000
Al      15.12500000      17.15000000       7.02500000
Al      15.12500000      19.17500000       5.00000000
Al      13.10242328      17.12860422       9.22038381
Al      13.09965650      19.21492011      11.41947489
Al      15.00035518      17.03048827      11.42305826
Al      15.11279236      19.17402249       9.22857640
Al      13.10000000      17.15000000      13.61125931
Al      13.10000000      19.17500000      15.78233340
Al      15.12500000      17.15000000      15.78233340
Al      15.12500000      19.17500000      13.61125931
Al      13.10000000      21.20000000       5.00000000
Al      13.10000000      23.22500000       7.02500000
Al      15.12500000      21.20000000       7.02500000
Al      15.12500000      23.22500000       5.00000000
Al      13.09598376      21.23418492       9.22943551
Al      13.09596066      23.35009505      11.42535969
Al      15.13455064      21.23901182      11.40456981
Al      15.13038819      23.35179624       9.21220305
Al      13.10000000      21.20000000      13.61125931
Al      13.10000000      23.22500000      15.78233340
Al      15.12500000      21.20000000      15.78233340
Al      15.12500000      23.22500000      13.61125931
Al      17.15000000       5.00000000       5.00000000
Al      17.15000000       7.02500000       7.02500000
Al      19.17500000       5.00000000       7.02500000
Al      19.17500000       7.02500000       5.00000000
Al      17.16456307       4.87608243       9.21439958
Al      17.15887255       6.99737351      11.40665420
Al      19.18530244       4.89084947      11.43492857
Al      19.15182045       7.03503169       9.22475550
Al      17.15000000       5.00000000      13.61125931
Al      17.15000000       7.02500000      15.78233340
Al      19.17500000       5.00000000      15.78233340
Al      19.17500000       7.02500000      13.61125931
Al      17.15000000       9.05000000       5.00000000
Al      17.15000000      11.07500000       7.02500000
Al      19.17500000       9.05000000       7.02500000
Al      19.17500000      11.07500000       5.00000000
Al      17.13659368       9.05805775       9.22038086
Al      17.09881718      11.12618282      11.41753258
Al      19.13691834       9.08808166      11.42013425
Al      19.16694225      11.08840632       9.22038086
Al      17.15000000       9.05000000      13.61125931
Al      17.15000000      11.07500000      15.78233340
Al      19.17500000       9.05000000      15.78233340
Al      19.17500000      11.07500000      13.61125931
Al      17.15000000      13.10000000       5.00000000
Al      17.15000000      15.12500000       7.02500000
Al      19.17500000      13.10000000       7.02500000
Al      19.17500000      15.12500000       5.00000000
Al      17.13747423      13.11510619       9.22977135
Al      17.17975281      15.12176645      11.41818382
Al      19.19856826      13.09365720      11.41703544
Al      19.19380934      15.12529514       9.21593511
Al      17.15000000      13.10000000      13.61125931
Al      17.15000000      15.12500000      15.78233340
Al      19.17500000      13.10000000      15.78233340
Al      19.17500000      15.12500000      13.61125931
Al      17.15000000      17.15000000       5.00000000
Al      17.15000000      19.17500000       7.02500000
Al      19.17500000      17.15000000       7.02500000
Al      19.17500000      19.17500000       5.00000000
Al      17.12890700      17.13215094       9.23127101
Al      17.09819571      19.13113230      11.42011281
Al      19.18496231      17.14958087      11.41803853
Al      19.14534446      19.14817423       9.21883478
Al      17.15000000      17.15000000      13.61125931
Al      17.15000000      19.17500000      15.78233340
Al      19.17500000      17.15000000      15.78233340
Al      19.17500000      19.17500000      13.61125931
Al      17.15000000      21.20000000       5.00000000
Al      17.15000000      23.22500000       7.02500000
Al      19.17500000      21.20000000       7.02500000
Al      19.17500000      23.22500000       5.00000000
Al      17.14719919      21.21467531       9.23151534
Al      17.16558920      23.35252999      11.42468786
Al      19.13625984      21.17674068      11.41332128
Al      19.18016976      23.32299821       9.20557147
Al      17.15000000      21.20000000      13.61125931
Al      17.15000000      23.22500000      15.78233340
Al      19.17500000      21.20000000      15.78233340
Al      19.17500000      23.22500000      13.61125931
Al      21.20000000       5.00000000       5.00000000
Al      21.20000000       7.02500000       7.02500000
Al      23.22500000       5.00000000       7.02500000
Al      23.22500000       7.02500000       5.00000000
Al      21.14261556       4.95935883       9.20654995
Al      21.13921595       7.08578405      11.40186815
Al      23.14518626       5.07981374      11.38960664
Al      23.26564117       7.08238444       9.20654995
Al      21.20000000       5.00000000      13.61125931
Al      21.20000000       7.02500000      15.78233340
Al      23.22500000       5.00000000      15.78233340
Al      23.22500000       7.02500000      13.61125931
Al      21.20000000       9.05000000       5.00000000
Al      21.20000000      11.07500000       7.02500000
Al      23.22500000       9.05000000       7.02500000
Al      23.22500000      11.07500000       5.00000000
Al      21.18996831       9.07317955       9.22475550
Al      21.22762649      11.06612745      11.40665420
Al      23.33415053       9.03969756      11.43492857
Al      23.34891757      11.06043693       9.21439958
Al      21.20000000       9.05000000      13.61125931
Al      21.20000000      11.07500000      15.78233340
Al      23.22500000       9.05000000      15.78233340
Al      23.22500000      11.07500000      13.61125931
Al      21.20000000      13.10000000       5.00000000
Al      21.20000000      15.12500000       7.02500000
Al      23.22500000      13.10000000       7.02500000
Al      23.22500000      15.12500000       5.00000000
Al      21.23224414      13.09377650       9.23074211
Al      21.23099399      15.12903893      11.40421913
Al      23.34970011      13.09582814      11.42593213
Al      23.34837237      15.12903491       9.21306552
Al      21.20000000      13.10000000      13.61125931
Al      21.20000000      15.12500000      15.78233340
Al      23.22500000      13.10000000      15.78233340
Al      23.22500000      15.12500000      13.61125931
Al      21.20000000      17.15000000       5.00000000
Al      21.20000000      19.17500000       7.02500000
Al      23.22500000      17.15000000       7.02500000
Al      23.22500000      19.17500000       5.00000000
Al      21.22535011      17.15802376       9.22901400
Al      21.19851982      19.15926875      11.41282753
Al      23.34794837      17.16349867      11.42468080
Al      23.33350952      19.18474909       9.20464265
Al      21.20000000      17.15000000      13.61125931
Al      21.20000000      19.17500000      15.78233340
Al      23.22500000      17.15000000      15.78233340
Al      23.22500000      19.17500000      13.61125931
Al      21.20000000      21.20000000       5.00000000
Al      21.20000000      23.22500000       7.02500000
Al      23.22500000      21.20000000       7.02500000
Al      23.22500000      23.22500000       5.00000000
Al      21.14276266      21.14148979       9.23744671
Al      21.13737426      23.25694750      11.43363230
Al      23.27362861      21.14473277      11.43486439
Al      23.14516719      23.14703388       9.25400435
Al      21.20000000      21.20000000      13.61125931
Al      21.20000000      23.22500000      15.78233340
Al      23.22500000      21.20000000      15.78233340
Al      23.22500000      23.22500000      13.61125931
