299
Lattice="28.224999999999998 0.0 0.0 0.0 28.224999999999998 0.0 0.0 0.0 20.125" Properties=species:S:1:pos:R:3:forces:R:3 energy=-16462.1201955648 pbc="T T T"
Al       5.00000000       5.00000000       5.00000000       0.35552301       0.35512439       0.21009193
Al       5.00000000       7.02500000       7.02500000      -0.21299146       0.43328466       0.90733082
Al       7.02500000       5.00000000       7.02500000       0.42045747      -0.21430412       0.90379174
Al       7.02500000       7.02500000       5.00000000       0.32879140       0.32627445      -0.64215556
Al       5.18876345       5.19281235       9.30704547       0.02120039       0.02332418       0.01283385
Al       5.06750137       7.14784872      11.53126051       0.03791724       0.01958434       0.01429901
Al       7.12755189       5.02227632      11.53608879       0.01731344       0.02421338       0.01576630
Al       7.16248443       7.15963269       9.26549915       0.00621798       0.00118502       0.02039144
Al       5.00000000       5.00000000      13.76399437       0.52613390       0.55389774      -0.52738634
Al       5.00000000       7.02500000      15.97870705       0.13778160       0.47145613      -0.50956532
Al       7.02500000       5.00000000      15.97870705       0.47446213       0.13584525      -0.51521869
Al       7.02500000       7.02500000      13.76399437       0.39360554       0.38820648      -0.23697881
Al       5.00000000       9.05000000       5.00000000      -0.17731186      -0.04001669      -0.25697715
Al       5.00000000      11.07500000       7.02500000      -0.36877711      -0.01996873       0.97063507
Al       7.02500000       9.05000000       7.02500000       0.30680314       0.04508995       1.07873870
Al       7.02500000      11.07500000       5.00000000       0.32084192      -0.02823742      -0.70611999
Al       4.97453107       9.04985479       9.23680860       0.02332422       0.00170036       0.00230066
Al       4.94776399      11.05487780      11.50669148       0.01433533      -0.01317025       0.01147202
Al       7.12207558       9.13907741      11.51214043       0.02069423       0.01574223       0.01096405
Al       7.05452727      11.08184598       9.25660345      -0.00050166      -0.01553955       0.01285102
Al       5.00000000       9.05000000      13.76399437      -0.10136118       0.08420703      -0.17687035
Al       5.00000000      11.07500000      15.97870705       0.02148870      -0.02383562      -0.40990681
Al       7.02500000       9.05000000      15.97870705       0.33929313      -0.04913238      -0.16953301
Al       7.02500000      11.07500000      13.76399437       0.29547885       0.02296701      -0.29547503
Al       5.00000000      13.10000000       5.00000000      -0.19249036      -0.01069526      -0.26587711
Al       5.00000000      15.12500000       7.02500000      -0.39728662       0.01810836       0.99350848
Al       7.02500000      13.10000000       7.02500000       0.25167333      -0.00721788       1.17697027
Al       7.02500000      15.12500000       5.00000000       0.31703242       0.00362200      -0.71150836
Al       4.95735281      13.09406554       9.24762199       0.01300586      -0.00805653       0.00528698
Al       4.96671331      15.12962815      11.50616163       0.01050422      -0.00148133       0.01489686
Al       7.02655648      13.08266537      11.50318909       0.00166230      -0.01018549       0.01163022
Al       7.03402968      15.13201538       9.25463514      -0.00932207      -0.00365202       0.01609240
Al       5.00000000      13.10000000      13.76399437      -0.18300734      -0.02429076      -0.33360920
Al       5.00000000      15.12500000      15.97870705       0.01766168       0.00426520      -0.40326329
Al       7.02500000      13.10000000      15.97870705       0.33383107      -0.01146892      -0.15614949
Al       7.02500000      15.12500000      13.76399437       0.22762654       0.00672189      -0.30967216
Al       5.00000000      17.15000000       5.00000000      -0.19293000       0.02238356      -0.26238568
Al       5.00000000      19.17500000       7.02500000      -0.33739152      -0.08902748       0.81077107
Al       7.02500000      17.15000000       7.02500000       0.25375682      -0.01293679       1.13366378
Al       7.02500000      19.17500000       5.00000000       0.31727180       0.05159135      -0.69735394
Al       4.95124487      17.16813686       9.24904324       0.00447436       0.00833138       0.00642040
Al       4.95632221      19.19194618      11.52014742       0.01641833       0.00178576       0.01081452
Al       7.03049285      17.17031773      11.50578307      -0.00270042       0.01701387       0.01675172
Al       7.09420543      19.11997686       9.24846473       0.00373238      -0.01016092       0.00911773
Al       5.00000000      17.15000000      13.76399437      -0.17723194       0.02377766      -0.31185644
Al       5.00000000      19.17500000      15.97870705       0.02868284       0.03577404      -0.41148535
Al       7.02500000      17.15000000      15.97870705       0.33504782       0.02140098      -0.15788737
Al       7.02500000      19.17500000      13.76399437       0.33897499      -0.05842370      -0.23225931
Al       5.00000000      21.20000000       5.00000000      -0.07595845      -0.45543360      -0.15564610
Al       5.00000000      23.22500000       7.02500000       0.27012435      -0.27012435       0.97553853
Al       7.02500000      21.20000000       7.02500000       0.37925800      -0.37925800       1.05344727
Al       7.02500000      23.22500000       5.00000000       0.45543360       0.07595845      -0.15564610
Al       5.04262563      21.08818320       9.22013499       0.02504507      -0.01409992      -0.00797848
Al       5.22475018      23.00024982      11.44656680       0.02347237      -0.02347237      -0.00167798
Al       7.20404969      21.02095031      11.49544850       0.01501086      -0.01501086      -0.00198474
Al       7.13681680      23.18237437       9.22013499       0.01409992      -0.02504507      -0.00797848
Al       5.00000000      21.20000000      13.76399437       0.01523807      -0.44719210      -0.23262767
Al       5.00000000      23.22500000      15.97870705       0.59116320      -0.59116320      -0.63595893
Al       7.02500000      21.20000000      15.97870705       0.34055901      -0.34055901      -0.21034766
Al       7.02500000      23.22500000      13.76399437       0.44719210      -0.01523807      -0.23262767
Al       9.05000000       5.00000000       5.00000000      -0.03655911      -0.17685759      -0.25438679
Al       9.05000000       7.02500000       7.02500000       0.03579673       0.29474576       1.07434012
Al      11.07500000       5.00000000       7.02500000      -0.01881120      -0.37846607       0.96998005
Al      11.07500000       7.02500000       5.00000000      -0.02007664       0.32061148      -0.70294312
Al       9.03998625       4.95725394       9.23650436       0.00406259       0.02072825       0.00345927
Al       9.08319488       7.07432559      11.51433285       0.00724740       0.00714976       0.01489059
Al      11.05979193       4.95959454      11.50622663      -0.00560271       0.02047494       0.01260502
Al      11.06202808       7.04056599       9.25407254      -0.01322715      -0.00435611       0.01462117
Al       9.05000000       5.00000000      13.76399437       0.08373757      -0.12766905      -0.16450338
Al       9.05000000       7.02500000      15.97870705      -0.04432058       0.33642613      -0.17341803
Al      11.07500000       5.00000000      15.97870705      -0.02025768       0.02452545      -0.41192352
Al      11.07500000       7.02500000      13.76399437      -0.00000829       0.24510947      -0.27768029
Al       9.05000000       9.05000000       5.00000000      -0.04914295      -0.05494687      -0.76278004
Al       9.05000000      11.07500000       7.02500000       0.00052478       0.04107305       1.08024084
Al      11.07500000       9.05000000       7.02500000       0.01771264      -0.01426699       1.07275153
Al      11.07500000      11.07500000       5.00000000      -0.02179667      -0.03031470      -0.77703464
Al       9.11968969       9.12534747       9.25108974       0.01319436       0.00401881       0.01641704
Al       9.15720953      11.17923730      11.51402465       0.01623685      -0.00335461       0.01995121
Al      11.08328923       9.05935775      11.51430772      -0.00438101      -0.00706340       0.02204532
Al      11.11606511      11.11770307       9.26263445       0.00948418      -0.00423877       0.01332373
Al       9.05000000       9.05000000      13.76399437       0.02223885       0.03739186      -0.20048857
Al       9.05000000      11.07500000      15.97870705      -0.05051484      -0.02974778      -0.09753954
Al      11.07500000       9.05000000      15.97870705      -0.02105911      -0.05556898      -0.10378009
Al      11.07500000      11.07500000      13.76399437       0.07291435       0.09595392      -0.28751435
Al       9.05000000      13.10000000       5.00000000      -0.05171381      -0.01233211      -0.77603948
Al       9.05000000      15.12500000       7.02500000      -0.06895807      -0.01234381       1.03879448
Al      11.07500000      13.10000000       7.02500000      -0.05483143      -0.04002270       0.97165016
Al      11.07500000      15.12500000       5.00000000      -0.01643929       0.00345665      -0.75981597
Al       9.06619243      13.11659848       9.25833798       0.00454025      -0.00679162       0.01327549
Al       9.02422984      15.12669220      11.51111690       0.00666445      -0.00131133       0.02344719
Al      11.27377042      13.29992403      11.49785527       0.02775121       0.02214812       0.01632427
Al      11.09676216      15.11643844       9.20745433       0.00991547      -0.00611238       0.00540035
Al       9.05000000      13.10000000      13.76399437       0.06648991       0.07684704      -0.29687429
Al       9.05000000      15.12500000      15.97870705      -0.04923917       0.00510338      -0.09558029
Al      11.07500000      13.10000000      15.97870705      -0.02077753      -0.01159127      -0.08532693
Al      11.07500000      15.12500000      13.76399437       0.08089053      -0.00380608       0.00645131
Al       9.05000000      17.15000000       5.00000000      -0.05191662       0.02102929      -0.77384593
Al       9.05000000      19.17500000       7.02500000       0.03047210      -0.03047210       1.04256399
Al      11.07500000      17.15000000       7.02500000      -0.03304116       0.03304116       0.96238170
Al      11.07500000      19.17500000       5.00000000      -0.02102929       0.05191662      -0.77384593
Al       9.08987172      17.11415967       9.25577739       0.00563606      -0.00002846       0.00721980
Al       9.20168658      19.02331342      11.51249522       0.02821520      -0.02821520       0.01765858
Al      11.29995580      16.92504420      11.49347360       0.04532364      -0.04532364       0.01819476
Al      11.11084033      19.13512828       9.25577739       0.00002846      -0.00563606       0.00721980
Al       9.05000000      17.15000000      13.76399437       0.07912320      -0.09359903      -0.25673421
Al       9.05000000      19.17500000      15.97870705      -0.04906026       0.04906026      -0.10186547
Al      11.07500000      17.15000000      15.97870705      -0.02225831       0.02225831      -0.08656667
Al      11.07500000      19.17500000      13.76399437       0.09359903      -0.07912320      -0.25673421
Al       9.05000000      21.20000000       5.00000000      -0.05159135      -0.31727180      -0.69735394
Al       9.05000000      23.22500000       7.02500000       0.08902748       0.33739152       0.81077107
Al      11.07500000      21.20000000       7.02500000       0.01293679      -0.25375682       1.13366378
Al      11.07500000      23.22500000       5.00000000      -0.02238356       0.19293000      -0.26238568
Al       9.10502314      21.13079457       9.24846473       0.01016092      -0.00373238       0.00911773
Al       9.03305382      23.26867779      11.52014742      -0.00178576      -0.01641833       0.01081452
Al      11.05468227      21.19450715      11.50578307      -0.01701387       0.00270042       0.01675172
Al      11.05686314      23.27375513       9.24904324      -0.00833138      -0.00447436       0.00642040
Al       9.05000000      21.20000000      13.76399437       0.05842370      -0.33897499      -0.23225931
Al       9.05000000      23.22500000      15.97870705      -0.03577404      -0.02868284      -0.41148535
Al      11.07500000      21.20000000      15.97870705      -0.02140098      -0.33504782      -0.15788737
Al      11.07500000      23.22500000      13.76399437      -0.02377766       0.17723194      -0.31185644
Al      13.10000000       5.00000000       5.00000000      -0.00408529      -0.18630458      -0.26284351
Al      13.10000000       7.02500000       7.02500000      -0.00621447       0.22562570       1.15975379
Al      15.12500000       5.00000000       7.02500000       0.02291474      -0.38528818       0.99616196
Al      15.12500000       7.02500000       5.00000000       0.01052594       0.31993593      -0.70435744
Al      13.09539331       4.96357466       9.24852863       0.00166692       0.02508841       0.00511932
Al      13.09307839       7.04049208      11.50214803       0.00465753       0.00011771       0.00974690
Al      15.12877769       4.96667837      11.50664797       0.00723094       0.02903181       0.01303729
Al      15.13565457       7.03621297       9.25548649       0.00953138       0.00088959       0.01937422
Al      13.10000000       5.00000000      13.76399437      -0.01611236      -0.16404870      -0.34336854
Al      13.10000000       7.02500000      15.97870705      -0.00375472       0.33612977      -0.16184387
Al      15.12500000       5.00000000      15.97870705       0.00893296       0.02492302      -0.40819993
Al      15.12500000       7.02500000      13.76399437       0.01850432       0.24104198      -0.31353077
Al      13.10000000       9.05000000       5.00000000      -0.00437735      -0.05927309      -0.77397933
Al      13.10000000      11.07500000       7.02500000       0.00025512      -0.05004321       1.04661668
Al      15.12500000       9.05000000       7.02500000      -0.00560740      -0.03206943       1.09617634
Al      15.12500000      11.07500000       5.00000000       0.01142092      -0.02938024      -0.77896766
Al      13.09922939       9.04379667       9.24667969       0.00334840      -0.01769558       0.01902489
Al      13.11058242      11.05407621      11.50992869       0.00886195      -0.01087741       0.02313344
Al      15.13693668       9.03479141      11.51188800       0.01462656      -0.01073589       0.01754975
Al      15.09923183      11.09940202       9.25941420       0.00226276      -0.01143061       0.01711722
Al      13.10000000       9.05000000      13.76399437       0.01153273      -0.07403437      -0.22383231
Al      13.10000000      11.07500000      15.97870705      -0.00322966      -0.02796883      -0.09573405
Al      15.12500000       9.05000000      15.97870705       0.01289882      -0.05520538      -0.10255189
Al      15.12500000      11.07500000      13.76399437      -0.06923100       0.07664716      -0.28874699
Al      13.10000000      13.10000000       5.00000000      -0.00366354      -0.00709229      -0.76029619
Al      13.10000000      15.12500000       7.02500000      -0.00589159       0.00589159       0.76140922
Al      15.12500000      13.10000000       7.02500000       0.04182513      -0.04182513       0.97444467
Al      15.12500000      15.12500000       5.00000000       0.00709229       0.00366354      -0.76029619
Al      13.10535909      13.12505597       9.21090768       0.00800361       0.00662786       0.01000482
Al      14.92043261      13.30456739      11.49915349      -0.02574105       0.02574105       0.01038676
Al      15.09994403      15.11964091       9.21090768      -0.00662786      -0.00800361       0.01000482
Al      13.10000000      13.10000000      13.76399437      -0.01456897       0.10257988      -0.00553555
Al      13.10000000      15.12500000      15.97870705      -0.00377920       0.00377920      -0.02810383
Al      15.12500000      13.10000000      15.97870705       0.01197742      -0.01197742      -0.08685907
Al      15.12500000      15.12500000      13.76399437      -0.10257988       0.01456897      -0.00553555
Al      13.10000000      17.15000000       5.00000000      -0.00345665       0.01643929      -0.75981597
Al      13.10000000      19.17500000       7.02500000       0.01234381       0.06895807       1.03879448
Al      15.12500000      17.15000000       7.02500000       0.04002270       0.05483143       0.97165016
Al      15.12500000      19.17500000       5.00000000       0.01233211       0.05171381      -0.77603948
Al      13.10856156      17.12823784       9.20745433       0.00611238      -0.00991547       0.00540035
Al      13.09830780      19.20077016      11.51111690       0.00131133      -0.00666445       0.02344719
Al      14.92507597      16.95122958      11.49785527      -0.02214812      -0.02775121       0.01632427
Al      15.10840152      19.15880757       9.25833798       0.00679162      -0.00454025       0.01327549
Al      13.10000000      17.15000000      13.76399437       0.00380608      -0.08089053       0.00645131
Al      13.10000000      19.17500000      15.97870705      -0.00510338       0.04923917      -0.09558029
Al      15.12500000      17.15000000      15.97870705       0.01159127       0.02077753      -0.08532693
Al      15.12500000      19.17500000      13.76399437      -0.07684704      -0.06648991      -0.29687429
Al      13.10000000      21.20000000       5.00000000      -0.00362200      -0.31703242      -0.71150836
Al      13.10000000      23.22500000       7.02500000      -0.01810836       0.39728662       0.99350848
Al      15.12500000      21.20000000       7.02500000       0.00721788      -0.25167333       1.17697027
Al      15.12500000      23.22500000       5.00000000       0.01069526       0.19249036      -0.26587711
Al      13.09298462      21.19097032       9.25463514       0.00365202       0.00932207       0.01609240
Al      13.09537185      23.25828669      11.50616163       0.00148133      -0.01050422       0.01489686
Al      15.14233463      21.19844352      11.50318909       0.01018549      -0.00166230       0.01163022
Al      15.13093446      23.26764719       9.24762199       0.00805653      -0.01300586       0.00528698
Al      13.10000000      21.20000000      13.76399437      -0.00672189      -0.22762654      -0.30967216
Al      13.10000000      23.22500000      15.97870705      -0.00426520      -0.01766168      -0.40326329
Al      15.12500000      21.20000000      15.97870705       0.01146892      -0.33383107      -0.15614949
Al      15.12500000      23.22500000      13.76399437       0.02429076       0.18300734      -0.33360920
Al      17.15000000       5.00000000       5.00000000       0.02415915      -0.18355555      -0.25632322
Al      17.15000000       7.02500000       7.02500000      -0.00224768       0.24910126       1.13077034
Al      19.17500000       5.00000000       7.02500000      -0.08529069      -0.33038954       0.82025951
Al      19.17500000       7.02500000       5.00000000       0.04938357       0.32359826      -0.68866032
Al      17.16687526       4.95129105       9.24913769       0.01205227       0.02174866       0.00696896
Al      17.16604048       7.03484989      11.50528028       0.02266540       0.00375641       0.01204872
Al      19.18824275       4.95987278      11.51956969       0.00139850       0.02895002       0.00927702
Al      19.12469088       7.08847067       9.24768091      -0.00858014       0.01362251       0.01276708
Al      17.15000000       5.00000000      13.76399437       0.02216955      -0.16120864      -0.31704419
Al      17.15000000       7.02500000      15.97870705       0.02353830       0.34045794      -0.16714419
Al      19.17500000       5.00000000      15.97870705       0.03506437       0.03618177      -0.41631133
Al      19.17500000       7.02500000      13.76399437      -0.04508647       0.32750878      -0.23954678
Al      17.15000000       9.05000000       5.00000000       0.02820490      -0.05650903      -0.76855273
Al      17.15000000      11.07500000       7.02500000      -0.01901538       0.01901538       1.09667412
Al      19.17500000       9.05000000       7.02500000      -0.01214685       0.01214685       1.03746902
Al      19.17500000      11.07500000       5.00000000       0.05650903      -0.02820490      -0.76855273
Al      17.11954535       9.08642712       9.25042561       0.00888353      -0.00091218       0.01729170
Al      17.03801822      11.18698178      11.51020275      -0.00676864       0.00676864       0.01806932
Al      19.07126344       9.15373656      11.51265073      -0.02217654       0.02217654       0.01450682
Al      19.13857288      11.10545465       9.25042561       0.00091218      -0.00888353       0.01729170
Al      17.15000000       9.05000000      13.76399437      -0.02891871       0.00731698      -0.22679243
Al      17.15000000      11.07500000      15.97870705       0.03055980      -0.03055980      -0.09716467
Al      19.17500000       9.05000000      15.97870705       0.04755161      -0.04755161      -0.11387521
Al      19.17500000      11.07500000      13.76399437      -0.00731698       0.02891871      -0.22679243
Al      17.15000000      13.10000000       5.00000000       0.02938024      -0.01142092      -0.77896766
Al      17.15000000      15.12500000       7.02500000       0.05004321      -0.00025512       1.04661668
Al      19.17500000      13.10000000       7.02500000       0.03206943       0.00560740       1.09617634
Al      19.17500000      15.12500000       5.00000000       0.05927309       0.00437735      -0.77397933
Al      17.12559798      13.12576817       9.25941420       0.01143061      -0.00226276       0.01711722
Al      17.17092379      15.11441758      11.50992869       0.01087741      -0.00886195       0.02313344
Al      19.19020859      13.08806332      11.51188800       0.01073589      -0.01462656       0.01754975
Al      19.18120333      15.12577061       9.24667969       0.01769558      -0.00334840       0.01902489
Al      17.15000000      13.10000000      13.76399437      -0.07664716       0.06923100      -0.28874699
Al      17.15000000      15.12500000      15.97870705       0.02796883       0.00322966      -0.09573405
Al      19.17500000      13.10000000      15.97870705       0.05520538      -0.01289882      -0.10255189
Al      19.17500000      15.12500000      13.76399437       0.07403437      -0.01153273      -0.22383231
Al      17.15000000      17.15000000       5.00000000       0.03031470       0.02179667      -0.77703464
Al      17.15000000      19.17500000       7.02500000      -0.04107305      -0.00052478       1.08024084
Al      19.17500000      17.15000000       7.02500000       0.01426699      -0.01771264       1.07275153
Al      19.17500000      19.17500000       5.00000000       0.05494687       0.04914295      -0.76278004
Al      17.10729693      17.10893489       9.26263445       0.00423877      -0.00948418       0.01332373
Al      17.04576270      19.06779047      11.51402465       0.00335461      -0.01623685       0.01995121
Al      19.16564225      17.14171077      11.51430772       0.00706340       0.00438101       0.02204532
Al      19.09965253      19.10531031       9.25108974      -0.00401881      -0.01319436       0.01641704
Al      17.15000000      17.15000000      13.76399437      -0.09595392      -0.07291435      -0.28751435
Al      17.15000000      19.17500000      15.97870705       0.02974778       0.05051484      -0.09753954
Al      19.17500000      17.15000000      15.97870705       0.05556898       0.02105911      -0.10378009
Al      19.17500000      19.17500000      13.76399437      -0.03739186      -0.02223885      -0.20048857
Al      17.15000000      21.20000000       5.00000000       0.02823742      -0.32084192      -0.70611999
Al      17.15000000      23.22500000       7.02500000       0.01996873       0.36877711       0.97063507
Al      19.17500000      21.20000000       7.02500000      -0.04508995      -0.30680314       1.07873870
Al      19.17500000      23.22500000       5.00000000       0.04001669       0.17731186      -0.25697715
Al      17.14315402      21.17047273       9.25660345       0.01553955       0.00050166       0.01285102
Al      17.17012220      23.27723601      11.50669148       0.01317025      -0.01433533       0.01147202
Al      19.08592259      21.10292442      11.51214043      -0.01574223      -0.02069423       0.01096405
Al      19.17514521      23.25046893       9.23680860      -0.00170036      -0.02332422       0.00230066
Al      17.15000000      21.20000000      13.76399437      -0.02296701      -0.29547885      -0.29547503
Al      17.15000000      23.22500000      15.97870705       0.02383562      -0.02148870      -0.40990681
Al      19.17500000      21.20000000      15.97870705       0.04913238      -0.33929313      -0.16953301
Al      19.17500000      23.22500000      13.76399437      -0.08420703       0.10136118      -0.17687035
Al      21.20000000       5.00000000       5.00000000      -0.45904792      -0.06916548      -0.15091398
Al      21.20000000       7.02500000       7.02500000      -0.37600240       0.37600240       1.06571459
Al      23.22500000       5.00000000       7.02500000      -0.27305549       0.27305549       0.97272905
Al      23.22500000       7.02500000       5.00000000       0.06916548       0.45904792      -0.15091398
Al      21.09325842       5.03674678       9.22136225      -0.01764309       0.03671220      -0.00562878
Al      21.04636101       7.17863899      11.49570412      -0.01794825       0.01794825      -0.00289674
Al      23.01850397       5.20649603      11.44896595      -0.03193160       0.03193160      -0.00266776
Al      23.18825322       7.13174158       9.22136225      -0.03671220       0.01764309      -0.00562878
Al      21.20000000       5.00000000      13.76399437      -0.44306907       0.01162272      -0.24648390
Al      21.20000000       7.02500000      15.97870705      -0.34482191       0.34482191      -0.21739032
Al      23.22500000       5.00000000      15.97870705      -0.59514769       0.59514769      -0.64150936
Al      23.22500000       7.02500000      13.76399437      -0.01162272       0.44306907      -0.24648390
Al      21.20000000       9.05000000       5.00000000      -0.32359826      -0.04938357      -0.68866032
Al      21.20000000      11.07500000       7.02500000      -0.24910126       0.00224768       1.13077034
Al      23.22500000       9.05000000       7.02500000       0.33038954       0.08529069       0.82025951
Al      23.22500000      11.07500000       5.00000000       0.18355555      -0.02415915      -0.25632322
Al      21.13652933       9.10030912       9.24768091      -0.01362251       0.00858014       0.01276708
Al      21.19015011      11.05895952      11.50528028      -0.00375641      -0.02266540       0.01204872
Al      23.26512722       9.03675725      11.51956969      -0.02895002      -0.00139850       0.00927702
Al      23.27370895      11.05812474       9.24913769      -0.02174866      -0.01205227       0.00696896
Al      21.20000000       9.05000000      13.76399437      -0.32750878       0.04508647      -0.23954678
Al      21.20000000      11.07500000      15.97870705      -0.34045794      -0.02353830      -0.16714419
Al      23.22500000       9.05000000      15.97870705      -0.03618177      -0.03506437      -0.41631133
Al      23.22500000      11.07500000      13.76399437       0.16120864      -0.02216955      -0.31704419
Al      21.20000000      13.10000000       5.00000000      -0.31993593      -0.01052594      -0.70435744
Al      21.20000000      15.12500000       7.02500000      -0.22562570       0.00621447       1.15975379
Al      23.22500000      13.10000000       7.02500000       0.38528818      -0.02291474       0.99616196
Al      23.22500000      15.12500000       5.00000000       0.18630458       0.00408529      -0.26284351
Al      21.18878703      13.08934543       9.25548649      -0.00088959      -0.00953138       0.01937422
Al      21.18450792      15.13192161      11.50214803      -0.00011771      -0.00465753       0.00974690
Al      23.25832163      13.09622231      11.50664797      -0.02903181      -0.00723094       0.01303729
Al      23.26142534      15.12960669       9.24852863      -0.02508841      -0.00166692       0.00511932
Al      21.20000000      13.10000000      13.76399437      -0.24104198      -0.01850432      -0.31353077
Al      21.20000000      15.12500000      15.97870705      -0.33612977       0.00375472      -0.16184387
Al      23.22500000      13.10000000      15.97870705      -0.02492302      -0.00893296      -0.40819993
Al      23.22500000      15.12500000      13.76399437       0.16404870       0.01611236      -0.34336854
Al      21.20000000      17.15000000       5.00000000      -0.32061148       0.02007664      -0.70294312
Al      21.20000000      19.17500000       7.02500000      -0.29474576      -0.03579673       1.07434012
Al      23.22500000      17.15000000       7.02500000       0.37846607       0.01881120       0.96998005
Al      23.22500000      19.17500000       5.00000000       0.17685759       0.03655911      -0.25438679
Al      21.18443401      17.16297192       9.25407254       0.00435611       0.01322715       0.01462117
Al      21.15067441      19.14180512      11.51433285      -0.00714976      -0.00724740       0.01489059
Al      23.26540546      17.16520807      11.50622663      -0.02047494       0.00560271       0.01260502
Al      23.26774606      19.18501375       9.23650436      -0.02072825      -0.00406259       0.00345927
Al      21.20000000      17.15000000      13.76399437      -0.24510947       0.00000829      -0.27768029