299
Lattice="28.224999999999998 0.0 0.0 0.0 28.224999999999998 0.0 0.0 0.0 20.125" Properties=species:S:1:pos:R:3 energy=-16372.658129262802 pbc="T T T"
Al       5.00000000       5.00000000       5.00000000
Al       5.00000000       7.02500000       7.02500000
Al       7.02500000       5.00000000       7.02500000
Al       7.02500000       7.02500000       5.00000000
Al       5.99035572       5.95706109       9.73013834
Al       5.59800163       7.53810379      12.68971485
Al       7.60980557       5.42177431      12.59404070
Al       8.07426478       7.55641313      10.29332874
Al       5.00000000       5.00000000      15.47079623
Al       5.00000000       7.02500000      18.17316658
Al       7.02500000       5.00000000      18.17316658
Al       7.02500000       7.02500000      15.47079623
Al       5.00000000       9.05000000       5.00000000
Al       5.00000000      11.07500000       7.02500000
Al       7.02500000       9.05000000       7.02500000
Al       7.02500000      11.07500000       5.00000000
Al       5.72640144       9.13129814       9.78677056
Al       5.51518834      11.11577905      12.64483178
Al       7.71540867       9.34827196      12.65590149
Al       7.08267689      11.69892048       9.87040319
Al       5.00000000       9.05000000      15.47079623
Al       5.00000000      11.07500000      18.17316658
Al       7.02500000       9.05000000      18.17316658
Al       7.02500000      11.07500000      15.47079623
Al       5.00000000      13.10000000       5.00000000
Al       5.00000000      15.12500000       7.02500000
Al       7.02500000      13.10000000       7.02500000
Al       7.02500000      15.12500000       5.00000000
Al       5.08405527      13.69704197       9.95996556
Al       5.00638668      15.65611825      12.77924419
Al       6.92710968      13.66143382      12.74678476
Al       7.79159235      14.69510932       9.88788694
Al       5.00000000      13.10000000      15.47079623
Al       5.00000000      15.12500000      18.17316658
Al       7.02500000      13.10000000      18.17316658
Al       7.02500000      15.12500000      15.47079623
Al       5.00000000      17.15000000       5.00000000
Al       5.00000000      19.17500000       7.02500000
Al       7.02500000      17.15000000       7.02500000
Al       7.02500000      19.17500000       5.00000000
Al       5.70731528      16.74584818       9.82874840
Al       5.63651762      18.80408724      12.61501613
Al       7.66728967      16.77091839      12.51882921
Al       7.05276846      19.24638193       9.73184425
Al       5.00000000      17.15000000      15.47079623
Al       5.00000000      19.17500000      18.17316658
Al       7.02500000      17.15000000      18.17316658
Al       7.02500000      19.17500000      15.47079623
Al       5.00000000      21.20000000       5.00000000
Al       5.00000000      23.22500000       7.02500000
Al       7.02500000      21.20000000       7.02500000
Al       7.02500000      23.22500000       5.00000000
Al       5.07520441      21.10980130       9.43922813
Al       6.61918040      21.60581960      12.40709988
Al       8.64067788      19.58432212      12.65408389
Al       7.11519870      23.14979559       9.43922813
Al       5.00000000      21.20000000      15.47079623
Al       5.00000000      23.22500000      18.17316658
Al       7.02500000      21.20000000      18.17316658
Al       7.02500000      23.22500000      15.47079623
Al       9.05000000       5.00000000       5.00000000
Al       9.05000000       7.02500000       7.02500000
Al      11.07500000       5.00000000       7.02500000
Al      11.07500000       7.02500000       5.00000000
Al       9.45178711       5.19308183       9.69168211
Al       9.59876299       7.32200351      12.94073166
Al      11.31888143       5.15322772      12.59708584
Al      10.99786577       7.69789247       9.95367436
Al       9.05000000       5.00000000      15.47079623
Al       9.05000000       7.02500000      18.17316658
Al      11.07500000       5.00000000      18.17316658
Al      11.07500000       7.02500000      15.47079623
Al       9.05000000       9.05000000       5.00000000
Al       9.05000000      11.07500000       7.02500000
Al      11.07500000       9.05000000       7.02500000
Al      11.07500000      11.07500000       5.00000000
Al       9.17510948       9.91022995       9.72804875
Al       8.93242932      11.81159296      12.67903544
Al      10.86532555       9.79021455      12.55754570
Al      11.87760521      10.70312423       9.80916166
Al       9.05000000       9.05000000      15.47079623
Al       9.05000000      11.07500000      18.17316658
Al      11.07500000       9.05000000      18.17316658
Al      11.07500000      11.07500000      15.47079623
Al       9.05000000      13.10000000       5.00000000
Al       9.05000000      15.12500000       7.02500000
Al      11.07500000      13.10000000       7.02500000
Al      11.07500000      15.12500000       5.00000000
Al       9.84134750      12.73186013       9.84134258
Al       9.64353643      14.77393080      12.67006241
Al      11.66349456      12.78871964      12.55430059
Al      10.89614443      15.35563788       9.75230754
Al       9.05000000      13.10000000      15.47079623
Al       9.05000000      15.12500000      18.17316658
Al      11.07500000      13.10000000      18.17316658
Al      11.07500000      15.12500000      15.47079623
Al       9.05000000      17.15000000       5.00000000
Al       9.05000000      19.17500000       7.02500000
Al      11.07500000      17.15000000       7.02500000
Al      11.07500000      19.17500000       5.00000000
Al       8.93300261      17.29079889       9.58259136
Al      10.63738283      17.58761717      12.37896725
Al      12.63640732      15.58859268      12.60399153
Al      10.93420111      19.29199739       9.58259136
Al       9.05000000      17.15000000      15.47079623
Al       9.05000000      19.17500000      18.17316658
Al      11.07500000      17.15000000      18.17316658
Al      11.07500000      19.17500000      15.47079623
Al       9.05000000      21.20000000       5.00000000
Al       9.05000000      23.22500000       7.02500000
Al      11.07500000      21.20000000       7.02500000
Al      11.07500000      23.22500000       5.00000000
Al       8.97861807      21.17223154       9.73184425
Al       9.42091276      22.58848238      12.61501613
Al      11.45408161      20.55771033      12.51882921
Al      11.47915182      22.51768472       9.82874840
Al       9.05000000      21.20000000      15.47079623
Al       9.05000000      23.22500000      18.17316658
Al      11.07500000      21.20000000      18.17316658
Al      11.07500000      23.22500000      15.47079623
Al      13.10000000       5.00000000       5.00000000
Al      13.10000000       7.02500000       7.02500000
Al      15.12500000       5.00000000       7.02500000
Al      15.12500000       7.02500000       5.00000000
Al      12.95461102       5.60366841       9.79621221
Al      12.76335436       7.65557133      12.76096002
Al      14.88686360       5.66830294      12.57328250
Al      15.71772946       6.73136035       9.62982744
Al      13.10000000       5.00000000      15.47079623
Al      13.10000000       7.02500000      18.17316658
Al      15.12500000       5.00000000      18.17316658
Al      15.12500000       7.02500000      15.47079623
Al      13.10000000       9.05000000       5.00000000
Al      13.10000000      11.07500000       7.02500000
Al      15.12500000       9.05000000       7.02500000
Al      15.12500000      11.07500000       5.00000000
Al      13.75515413       8.64197100       9.94876370
Al      13.60586642      10.77220394      12.67219872
Al      15.51386417       8.77132474      12.72947951
Al      14.85783907      11.35933191       9.71314750
Al      13.10000000       9.05000000      15.47079623
Al      13.10000000      11.07500000      18.17316658
Al      15.12500000       9.05000000      18.17316658
Al      15.12500000      11.07500000      15.47079623
Al      13.10000000      13.10000000       5.00000000
Al      13.10000000      15.12500000       7.02500000
Al      15.12500000      13.10000000       7.02500000
Al      15.12500000      15.12500000       5.00000000
Al      12.87461626      13.37154811       9.63863996
Al      14.63155991      13.59344009      12.39647980
Al      14.85345189      15.35038374       9.63863996
Al      13.10000000      13.10000000      15.47079623
Al      13.10000000      15.12500000      18.17316658
Al      15.12500000      13.10000000      18.17316658
Al      15.12500000      15.12500000      15.47079623
Al      13.10000000      17.15000000       5.00000000
Al      13.10000000      19.17500000       7.02500000
Al      15.12500000      17.15000000       7.02500000
Al      15.12500000      19.17500000       5.00000000
Al      12.86936212      17.32885557       9.75230754
Al      13.45106920      18.58146357      12.67006241
Al      15.43628036      16.56150544      12.55430059
Al      15.49313987      18.38365250       9.84134258
Al      13.10000000      17.15000000      15.47079623
Al      13.10000000      19.17500000      18.17316658
Al      15.12500000      17.15000000      18.17316658
Al      15.12500000      19.17500000      15.47079623
Al      13.10000000      21.20000000       5.00000000
Al      13.10000000      23.22500000       7.02500000
Al      15.12500000      21.20000000       7.02500000
Al      15.12500000      23.22500000       5.00000000
Al      13.52989068      20.43340765       9.88788694
Al      12.56888175      23.21861332      12.77924419
Al      14.56356618      21.29789032      12.74678476
Al      14.52795803      23.14094473       9.95996556
Al      13.10000000      21.20000000      15.47079623
Al      13.10000000      23.22500000      18.17316658
Al      15.12500000      21.20000000      18.17316658
Al      15.12500000      23.22500000      15.47079623
Al      17.15000000       5.00000000       5.00000000
Al      17.15000000       7.02500000       7.02500000
Al      19.17500000       5.00000000       7.02500000
Al      19.17500000       7.02500000       5.00000000
Al      17.77018746       4.84298908      10.13328721
Al      17.56312345       6.93190245      12.56901852
Al      19.53274645       4.99437846      12.89378229
Al      18.82267109       7.42170101       9.57739499
Al      17.15000000       5.00000000      15.47079623
Al      17.15000000       7.02500000      18.17316658
Al      19.17500000       5.00000000      18.17316658
Al      19.17500000       7.02500000      15.47079623
Al      17.15000000       9.05000000       5.00000000
Al      17.15000000      11.07500000       7.02500000
Al      19.17500000       9.05000000       7.02500000
Al      19.17500000      11.07500000       5.00000000
Al      16.83772106       9.37867161       9.87281673
Al      16.60748772      11.61751228      12.52975107
Al      18.55509632       9.66990368      12.66407642
Al      18.84632839      11.38727894       9.87281673
Al      17.15000000       9.05000000      15.47079623
Al      17.15000000      11.07500000      18.17316658
Al      19.17500000       9.05000000      18.17316658
Al      19.17500000      11.07500000      15.47079623
Al      17.15000000      13.10000000       5.00000000
Al      17.15000000      15.12500000       7.02500000
Al      19.17500000      13.10000000       7.02500000
Al      19.17500000      15.12500000       5.00000000
Al      16.86566809      13.36716093       9.71314750
Al      17.45279606      14.61913358      12.67219872
Al      19.45367526      12.71113583      12.72947951
Al      19.58302900      14.46984587       9.94876370
Al      17.15000000      13.10000000      15.47079623
Al      17.15000000      15.12500000      18.17316658
Al      19.17500000      13.10000000      18.17316658
Al      19.17500000      15.12500000      15.47079623
Al      17.15000000      17.15000000       5.00000000
Al      17.15000000      19.17500000       7.02500000
Al      19.17500000      17.15000000       7.02500000
Al      19.17500000      19.17500000       5.00000000
Al      17.52187577      16.34739479       9.80916166
Al      16.41340704      19.29257068      12.67903544
Al      18.43478545      17.35967445      12.55754570
Al      18.31477005      19.04989052       9.72804875
Al      17.15000000      17.15000000      15.47079623
Al      17.15000000      19.17500000      18.17316658
Al      19.17500000      17.15000000      18.17316658
Al      19.17500000      19.17500000      15.47079623
Al      17.15000000      21.20000000       5.00000000
Al      17.15000000      23.22500000       7.02500000
Al      19.17500000      21.20000000       7.02500000
Al      19.17500000      23.22500000       5.00000000
Al      16.52607952      21.14232311       9.87040319
Al      17.10922095      22.70981166      12.64483178
Al      18.87672804      20.50959133      12.65590149
Al      19.09370186      22.49859856       9.78677056
Al      17.15000000      21.20000000      15.47079623
Al      17.15000000      23.22500000      18.17316658
Al      19.17500000      21.20000000      18.17316658
Al      19.17500000      23.22500000      15.47079623
Al      21.20000000       5.00000000       5.00000000
Al      21.20000000       7.02500000       7.02500000
Al      23.22500000       5.00000000       7.02500000
Al      23.22500000       7.02500000       5.00000000
Al      20.79884829       5.40886940       9.81383827
Al      20.49133106       7.73366894      12.21993506
Al      22.42288534       5.80211466      12.67759982
Al      22.81613060       7.42615171       9.81383827
Al      21.20000000       5.00000000      15.47079623
Al      21.20000000       7.02500000      18.17316658
Al      23.22500000       5.00000000      18.17316658
Al      23.22500000       7.02500000      15.47079623
Al      21.20000000       9.05000000       5.00000000
Al      21.20000000      11.07500000       7.02500000
Al      23.22500000       9.05000000       7.02500000
Al      23.22500000      11.07500000       5.00000000
Al      20.80329899       9.40232891       9.57739499
Al      21.29309755      10.66187655      12.56901852
Al      23.23062154       8.69225355      12.89378229
Al      23.38201092      10.45481254      10.13328721
Al      21.20000000       9.05000000      15.47079623
Al      21.20000000      11.07500000      18.17316658
Al      23.22500000       9.05000000      18.17316658
Al      23.22500000      11.07500000      15.47079623
Al      21.20000000      13.10000000       5.00000000
Al      21.20000000      15.12500000       7.02500000
Al      23.22500000      13.10000000       7.02500000
Al      23.22500000      15.12500000       5.00000000
Al      21.49363965      12.50727054       9.62982744
Al      20.56942867      15.46164564      12.76096002
Al      22.55669706      13.33813640      12.57328250
Al      22.62133159      15.27038898       9.79621221
Al      21.20000000      13.10000000      15.47079623
Al      21.20000000      15.12500000      18.17316658
Al      23.22500000      13.10000000      18.17316658
Al      23.22500000      15.12500000      15.47079623
Al      21.20000000      17.15000000       5.00000000
Al      21.20000000      19.17500000       7.02500000
Al      23.22500000      17.15000000       7.02500000
Al      23.22500000      19.17500000       5.00000000
Al      20.52710753      17.22713423       9.95367436
Al      20.90299649      18.62623701      12.94073166
Al      23.07177228      16.90611857      12.59708584
Al      23.03191817      18.77321289       9.69168211
Al      21.20000000      17.15000000      15.47079623
Al      21.20000000      19.17500000      18.17316658
Al      23.22500000      17.15000000      18.17316658
Al      23.22500000      19.17500000      15.47079623
Al      21.20000000      21.20000000       5.00000000
Al      21.20000000      23.22500000       7.02500000
Al      23.22500000      21.20000000       7.02500000
Al      23.22500000      23.22500000       5.00000000
Al      20.66858687      20.15073522      10.29332874
Al      20.68689621      22.62699837      12.68971485
Al      22.80322569      20.61519443      12.59404070
Al      22.26793891      22.23464428       9.73013834
Al      21.20000000      21.20000000      15.47079623
Al      21.20000000      23.22500000      18.17316658
Al      23.22500000      21.20000000      18.17316658
Al      23.22500000      23.22500000      15.47079623
