299
Lattice="28.224999999999998 0.0 0.0 0.0 28.224999999999998 0.0 0.0 0.0 20.125" Properties=species:S:1:pos:R:3 energy=-16433.75601857288 pbc="T T T"
Al       5.00000000       5.00000000       5.00000000
Al       5.00000000       7.02500000       7.02500000
Al       7.02500000       5.00000000       7.02500000
Al       7.02500000       7.02500000       5.00000000
Al       5.43286333       5.42777380       9.57640000
Al       5.20913778       7.23538851      12.03132535
Al       7.26535531       5.16007960      12.02914754
Al       7.37768476       7.33444632       9.52978224
Al       5.00000000       5.00000000      14.49019523
Al       5.00000000       7.02500000      16.91239387
Al       7.02500000       5.00000000      16.91239387
Al       7.02500000       7.02500000      14.49019523
Al       5.00000000       9.05000000       5.00000000
Al       5.00000000      11.07500000       7.02500000
Al       7.02500000       9.05000000       7.02500000
Al       7.02500000      11.07500000       5.00000000
Al       5.07836201       9.03412364       9.46742103
Al       5.04230929      11.09574891      11.97171668
Al       7.18233999       9.21816726      11.99708133
Al       7.04436724      11.13526018       9.48390151
Al       5.00000000       9.05000000      14.49019523
Al       5.00000000      11.07500000      16.91239387
Al       7.02500000       9.05000000      16.91239387
Al       7.02500000      11.07500000      14.49019523
Al       5.00000000      13.10000000       5.00000000
Al       5.00000000      15.12500000       7.02500000
Al       7.02500000      13.10000000       7.02500000
Al       7.02500000      15.12500000       5.00000000
Al       5.02817750      13.16771849       9.48768562
Al       5.09342209      15.14220678      12.00564702
Al       7.10532689      13.10847743      11.99903337
Al       7.23304142      15.00577226       9.50330130
Al       5.00000000      13.10000000      14.49019523
Al       5.00000000      15.12500000      16.91239387
Al       7.02500000      13.10000000      16.91239387
Al       7.02500000      15.12500000      14.49019523
Al       5.00000000      17.15000000       5.00000000
Al       5.00000000      19.17500000       7.02500000
Al       7.02500000      17.15000000       7.02500000
Al       7.02500000      19.17500000       5.00000000
Al       5.18728279      17.03972131       9.49451241
Al       5.25873237      18.98322657      11.96619931
Al       7.29710735      16.99572877      11.98373981
Al       7.10853347      19.14939976       9.45285062
Al       5.00000000      17.15000000      14.49019523
Al       5.00000000      19.17500000      16.91239387
Al       7.02500000      17.15000000      16.91239387
Al       7.02500000      19.17500000      14.49019523
Al       5.00000000      21.20000000       5.00000000
Al       5.00000000      23.22500000       7.02500000
Al       7.02500000      21.20000000       7.02500000
Al       7.02500000      23.22500000       5.00000000
Al       5.08622027      21.05103508       9.42529592
Al       6.81832724      21.40667276      11.99063390
Al       8.81321443      19.41178557      11.99552492
Al       7.17396492      23.13877973       9.42529592
Al       5.00000000      21.20000000      14.49019523
Al       5.00000000      23.22500000      16.91239387
Al       7.02500000      21.20000000      16.91239387
Al       7.02500000      23.22500000      14.49019523
Al       9.05000000       5.00000000       5.00000000
Al       9.05000000       7.02500000       7.02500000
Al      11.07500000       5.00000000       7.02500000
Al      11.07500000       7.02500000       5.00000000
Al       9.05309624       5.02950494       9.45784520
Al       9.15228189       7.22665385      12.02718816
Al      11.04022682       5.10266892      11.97101396
Al      10.98669658       7.16708837       9.49913877
Al       9.05000000       5.00000000      14.49019523
Al       9.05000000       7.02500000      16.91239387
Al      11.07500000       5.00000000      16.91239387
Al      11.07500000       7.02500000      14.49019523
Al       9.05000000       9.05000000       5.00000000
Al       9.05000000      11.07500000       7.02500000
Al      11.07500000       9.05000000       7.02500000
Al      11.07500000      11.07500000       5.00000000
Al       9.19381204       9.34157874       9.50498730
Al       9.14972996      11.18084645      12.03053789
Al      11.14110769       9.18554511      12.00488528
Al      11.33814140      11.04844557       9.50263500
Al       9.05000000       9.05000000      14.49019523
Al       9.05000000      11.07500000      16.91239387
Al      11.07500000       9.05000000      16.91239387
Al      11.07500000      11.07500000      14.49019523
Al       9.05000000      13.10000000       5.00000000
Al       9.05000000      15.12500000       7.02500000
Al      11.07500000      13.10000000       7.02500000
Al      11.07500000      15.12500000       5.00000000
Al       9.22170022      12.96324222       9.49471258
Al       9.26938821      14.97219668      11.98806443
Al      11.30351015      12.99246481      11.99343958
Al      11.01709282      15.18578779       9.45580887
Al       9.05000000      13.10000000      14.49019523
Al       9.05000000      15.12500000      16.91239387
Al      11.07500000      13.10000000      16.91239387
Al      11.07500000      15.12500000      14.49019523
Al       9.05000000      17.15000000       5.00000000
Al       9.05000000      19.17500000       7.02500000
Al      11.07500000      17.15000000       7.02500000
Al      11.07500000      19.17500000       5.00000000
Al       9.04748828      17.17675289       9.45082832
Al      10.81202286      17.41297714      11.97418924
Al      12.79907763      15.42592237      11.97100312
Al      11.04824711      19.17751172       9.45082832
Al       9.05000000      17.15000000      14.49019523
Al       9.05000000      19.17500000      16.91239387
Al      11.07500000      17.15000000      16.91239387
Al      11.07500000      19.17500000      14.49019523
Al       9.05000000      21.20000000       5.00000000
Al       9.05000000      23.22500000       7.02500000
Al      11.07500000      21.20000000       7.02500000
Al      11.07500000      23.22500000       5.00000000
Al       9.07560024      21.11646653       9.45285062
Al       9.24177343      22.96626763      11.96619931
Al      11.22927123      20.92789265      11.98373981
Al      11.18527869      23.03771721       9.49451241
Al       9.05000000      21.20000000      14.49019523
Al       9.05000000      23.22500000      16.91239387
Al      11.07500000      21.20000000      16.91239387
Al      11.07500000      23.22500000      14.49019523
Al      13.10000000       5.00000000       5.00000000
Al      13.10000000       7.02500000       7.02500000
Al      15.12500000       5.00000000       7.02500000
Al      15.12500000       7.02500000       5.00000000
Al      13.07061869       5.17657243       9.50374089
Al      13.08093322       7.14584347      12.01313309
Al      15.14879023       5.15804417      11.97549880
Al      15.27605757       7.02551027       9.48339902
Al      13.10000000       5.00000000      14.49019523
Al      13.10000000       7.02500000      16.91239387
Al      15.12500000       5.00000000      16.91239387
Al      15.12500000       7.02500000      14.49019523
Al      13.10000000       9.05000000       5.00000000
Al      13.10000000      11.07500000       7.02500000
Al      15.12500000       9.05000000       7.02500000
Al      15.12500000      11.07500000       5.00000000
Al      13.22008209       8.94527315       9.49258456
Al      13.31330096      10.99401217      12.00626141
Al      15.27880675       8.97377053      11.99283931
Al      14.99702288      11.19271775       9.44416260
Al      13.10000000       9.05000000      14.49019523
Al      13.10000000      11.07500000      16.91239387
Al      15.12500000       9.05000000      16.91239387
Al      15.12500000      11.07500000      14.49019523
Al      13.10000000      13.10000000       5.00000000
Al      13.10000000      15.12500000       7.02500000
Al      15.12500000      13.10000000       7.02500000
Al      15.12500000      15.12500000       5.00000000
Al      13.03666758      13.22869935       9.44647087
Al      14.78020738      13.44479262      11.95379655
Al      14.99630065      15.18833242       9.44647087
Al      13.10000000      13.10000000      14.49019523
Al      13.10000000      15.12500000      16.91239387
Al      15.12500000      13.10000000      16.91239387
Al      15.12500000      15.12500000      14.49019523
Al      13.10000000      17.15000000       5.00000000
Al      13.10000000      19.17500000       7.02500000
Al      15.12500000      17.15000000       7.02500000
Al      15.12500000      19.17500000       5.00000000
Al      13.03921221      17.20790718       9.45580887
Al      13.25280332      18.95561179      11.98806443
Al      15.23253519      16.92148985      11.99343958
Al      15.26175778      19.00329978       9.49471258
Al      13.10000000      17.15000000      14.49019523
Al      13.10000000      19.17500000      16.91239387
Al      15.12500000      17.15000000      16.91239387
Al      15.12500000      19.17500000      14.49019523
Al      13.10000000      21.20000000       5.00000000
Al      13.10000000      23.22500000       7.02500000
Al      15.12500000      21.20000000       7.02500000
Al      15.12500000      23.22500000       5.00000000
Al      13.21922774      20.99195858       9.50330130
Al      13.08279322      23.13157791      12.00564702
Al      15.11652257      21.11967311      11.99903337
Al      15.05728151      23.19682250       9.48768562
Al      13.10000000      21.20000000      14.49019523
Al      13.10000000      23.22500000      16.91239387
Al      15.12500000      21.20000000      16.91239387
Al      15.12500000      23.22500000      14.49019523
Al      17.15000000       5.00000000       5.00000000
Al      17.15000000       7.02500000       7.02500000
Al      19.17500000       5.00000000       7.02500000
Al      19.17500000       7.02500000       5.00000000
Al      17.26736979       4.97388532       9.50697276
Al      17.31774810       7.05125050      12.00001103
Al      19.30877306       5.03739598      12.01047306
Al      18.98557897       7.24468956       9.43037306
Al      17.15000000       5.00000000      14.49019523
Al      17.15000000       7.02500000      16.91239387
Al      19.17500000       5.00000000      16.91239387
Al      19.17500000       7.02500000      14.49019523
Al      17.15000000       9.05000000       5.00000000
Al      17.15000000      11.07500000       7.02500000
Al      19.17500000       9.05000000       7.02500000
Al      19.17500000      11.07500000       5.00000000
Al      17.00606944       9.22597492       9.43968251
Al      16.74861752      11.47638248      11.94080286
Al      18.68988883       9.53511117      11.92793305
Al      18.99902508      11.21893056       9.43968251
Al      17.15000000       9.05000000      14.49019523
Al      17.15000000      11.07500000      16.91239387
Al      19.17500000       9.05000000      16.91239387
Al      19.17500000      11.07500000      14.49019523
Al      17.15000000      13.10000000       5.00000000
Al      17.15000000      15.12500000       7.02500000
Al      19.17500000      13.10000000       7.02500000
Al      19.17500000      15.12500000       5.00000000
Al      17.03228225      13.22797712       9.44416260
Al      17.23098783      14.91169904      12.00626141
Al      19.25122947      12.94619325      11.99283931
Al      19.27972685      15.00491791       9.49258456
Al      17.15000000      13.10000000      14.49019523
Al      17.15000000      15.12500000      16.91239387
Al      19.17500000      13.10000000      16.91239387
Al      19.17500000      15.12500000      14.49019523
Al      17.15000000      17.15000000       5.00000000
Al      17.15000000      19.17500000       7.02500000
Al      19.17500000      17.15000000       7.02500000
Al      19.17500000      19.17500000       5.00000000
Al      17.17655443      16.88685860       9.50263500
Al      17.04415355      19.07527004      12.03053789
Al      19.03945489      17.08389231      12.00488528
Al      18.88342126      19.03118796       9.50498730
Al      17.15000000      17.15000000      14.49019523
Al      17.15000000      19.17500000      16.91239387
Al      19.17500000      17.15000000      16.91239387
Al      19.17500000      19.17500000      14.49019523
Al      17.15000000      21.20000000       5.00000000
Al      17.15000000      23.22500000       7.02500000
Al      19.17500000      21.20000000       7.02500000
Al      19.17500000      23.22500000       5.00000000
Al      17.08973982      21.18063276       9.48390151
Al      17.12925109      23.18269071      11.97171668
Al      19.00683274      21.04266001      11.99708133
Al      19.19087636      23.14663799       9.46742103
Al      17.15000000      21.20000000      14.49019523
Al      17.15000000      23.22500000      16.91239387
Al      19.17500000      21.20000000      16.91239387
Al      19.17500000      23.22500000      14.49019523
Al      21.20000000       5.00000000       5.00000000
Al      21.20000000       7.02500000       7.02500000
Al      23.22500000       5.00000000       7.02500000
Al      23.22500000       7.02500000       5.00000000
Al      20.93638888       5.21758844       9.40302323
Al      20.61532381       7.60967619      11.91657254
Al      22.53321313       5.69178687      11.89790593
Al      23.00741156       7.28861112       9.40302323
Al      21.20000000       5.00000000      14.49019523
Al      21.20000000       7.02500000      16.91239387
Al      23.22500000       5.00000000      16.91239387
Al      23.22500000       7.02500000      14.49019523
Al      21.20000000       9.05000000       5.00000000
Al      21.20000000      11.07500000       7.02500000
Al      23.22500000       9.05000000       7.02500000
Al      23.22500000      11.07500000       5.00000000
Al      20.98031044       9.23942103       9.43037306
Al      21.17374950      10.90725190      12.00001103
Al      23.18760402       8.91622694      12.01047306
Al      23.25111468      10.95763021       9.50697276
Al      21.20000000       9.05000000      14.49019523
Al      21.20000000      11.07500000      16.91239387
Al      23.22500000       9.05000000      16.91239387
Al      23.22500000      11.07500000      14.49019523
Al      21.20000000      13.10000000       5.00000000
Al      21.20000000      15.12500000       7.02500000
Al      23.22500000      13.10000000       7.02500000
Al      23.22500000      15.12500000       5.00000000
Al      21.19948973      12.94894243       9.48339902
Al      21.07915653      15.14406678      12.01313309
Al      23.06695583      13.07620977      11.97549880
Al      23.04842757      15.15438131       9.50374089
Al      21.20000000      13.10000000      14.49019523
Al      21.20000000      15.12500000      16.91239387
Al      23.22500000      13.10000000      16.91239387
Al      23.22500000      15.12500000      14.49019523
Al      21.20000000      17.15000000       5.00000000
Al      21.20000000      19.17500000       7.02500000
Al      23.22500000      17.15000000       7.02500000
Al      23.22500000      19.17500000       5.00000000
Al      21.05791163      17.23830342       9.49913877
Al      20.99834615      19.07271811      12.02718816
Al      23.12233108      17.18477318      11.97101396
Al      23.19549506      19.17190376       9.45784520
Al      21.20000000      17.15000000      14.49019523
Al      21.20000000      19.17500000      16.91239387
Al      23.22500000      17.15000000      16.91239387
Al      23.22500000      19.17500000      14.49019523
Al      21.20000000      21.20000000       5.00000000
Al      21.20000000      23.22500000       7.02500000
Al      23.22500000      21.20000000       7.02500000
Al      23.22500000      23.22500000       5.00000000
Al      20.89055368      20.84731524       9.52978224
Al      20.98961149      23.01586222      12.03132535
Al      23.06492040      20.95964469      12.02914754
Al      22.79722620      22.79213667       9.57640000
Al      21.20000000      21.20000000      14.49019523
Al      21.20000000      23.22500000      16.91239387
Al      23.22500000      21.20000000      16.91239387
Al      23.22500000      23.22500000      14.49019523
