299
Lattice="28.224999999999998 0.0 0.0 0.0 28.224999999999998 0.0 0.0 0.0 20.125" Properties=species:S:1:pos:R:3 energy=-16397.193736140664 pbc="T T T"
Al       5.00000000       5.00000000       5.00000000
Al       5.00000000       7.02500000       7.02500000
Al       7.02500000       5.00000000       7.02500000
Al       7.02500000       7.02500000       5.00000000
Al       5.84487839       5.81285369       9.71701402
Al       5.49587985       7.43186616      12.43578066
Al       7.50955245       5.31734803      12.36801066
Al       7.86358883       7.59080888       9.85067343
Al       5.00000000       5.00000000      15.10173676
Al       5.00000000       7.02500000      17.69866155
Al       7.02500000       5.00000000      17.69866155
Al       7.02500000       7.02500000      15.10173676
Al       5.00000000       9.05000000       5.00000000
Al       5.00000000      11.07500000       7.02500000
Al       7.02500000       9.05000000       7.02500000
Al       7.02500000      11.07500000       5.00000000
Al       5.44047981       9.09748384       9.65666867
Al       5.24371197      11.13029669      12.38336786
Al       7.47492000       9.38929142      12.36724488
Al       7.03485214      11.54931134       9.70771711
Al       5.00000000       9.05000000      15.10173676
Al       5.00000000      11.07500000      17.69866155
Al       7.02500000       9.05000000      17.69866155
Al       7.02500000      11.07500000      15.10173676
Al       5.00000000      13.10000000       5.00000000
Al       5.00000000      15.12500000       7.02500000
Al       7.02500000      13.10000000       7.02500000
Al       7.02500000      15.12500000       5.00000000
Al       5.03089669      13.55727842       9.78008380
Al       5.07879445      15.44352145      12.52604580
Al       7.00854288      13.41979480      12.49126633
Al       7.66439827      14.72326700       9.74846673
Al       5.00000000      13.10000000      15.10173676
Al       5.00000000      15.12500000      17.69866155
Al       7.02500000      13.10000000      17.69866155
Al       7.02500000      15.12500000      15.10173676
Al       5.00000000      17.15000000       5.00000000
Al       5.00000000      19.17500000       7.02500000
Al       7.02500000      17.15000000       7.02500000
Al       7.02500000      19.17500000       5.00000000
Al       5.59460910      16.77934032       9.71077816
Al       5.57384484      18.81588815      12.33383461
Al       7.61956598      16.79010116      12.33392466
Al       7.05674234      19.23010322       9.56370192
Al       5.00000000      17.15000000      15.10173676
Al       5.00000000      19.17500000      17.69866155
Al       7.02500000      17.15000000      17.69866155
Al       7.02500000      19.17500000      15.10173676
Al       5.00000000      21.20000000       5.00000000
Al       5.00000000      23.22500000       7.02500000
Al       7.02500000      21.20000000       7.02500000
Al       7.02500000      23.22500000       5.00000000
Al       5.07000092      21.09944322       9.44312629
Al       6.62287396      21.60212604      12.28729024
Al       8.63704342      19.58795658      12.34964544
Al       7.12555678      23.15499908       9.44312629
Al       5.00000000      21.20000000      15.10173676
Al       5.00000000      23.22500000      17.69866155
Al       7.02500000      21.20000000      17.69866155
Al       7.02500000      23.22500000      15.10173676
Al       9.05000000       5.00000000       5.00000000
Al       9.05000000       7.02500000       7.02500000
Al      11.07500000       5.00000000       7.02500000
Al      11.07500000       7.02500000       5.00000000
Al       9.26388907       5.15955329       9.59560389
Al       9.36534243       7.36124742      12.57002846
Al      11.08803663       5.16362729      12.37580653
Al      10.92287947       7.58373132       9.77556024
Al       9.05000000       5.00000000      15.10173676
Al       9.05000000       7.02500000      17.69866155
Al      11.07500000       5.00000000      17.69866155
Al      11.07500000       7.02500000      15.10173676
Al       9.05000000       9.05000000       5.00000000
Al       9.05000000      11.07500000       7.02500000
Al      11.07500000       9.05000000       7.02500000
Al      11.07500000      11.07500000       5.00000000
Al       9.22220915       9.87535611       9.79254847
Al       9.07868859      11.61109917      12.52014330
Al      11.00686721       9.59410546      12.40705460
Al      11.81405204      10.77423362       9.70591494
Al       9.05000000       9.05000000      15.10173676
Al       9.05000000      11.07500000      17.69866155
Al      11.07500000       9.05000000      17.69866155
Al      11.07500000      11.07500000      15.10173676
Al       9.05000000      13.10000000       5.00000000
Al       9.05000000      15.12500000       7.02500000
Al      11.07500000      13.10000000       7.02500000
Al      11.07500000      15.12500000       5.00000000
Al       9.72142909      12.76277165       9.72750400
Al       9.58817219      14.76336026      12.41142487
Al      11.64876204      12.80119626      12.33523455
Al      10.89706921      15.34155048       9.61933686
Al       9.05000000      13.10000000      15.10173676
Al       9.05000000      15.12500000      17.69866155
Al      11.07500000      13.10000000      17.69866155
Al      11.07500000      15.12500000      15.10173676
Al       9.05000000      17.15000000       5.00000000
Al       9.05000000      19.17500000       7.02500000
Al      11.07500000      17.15000000       7.02500000
Al      11.07500000      19.17500000       5.00000000
Al       8.93985359      17.27600062       9.52990355
Al      10.64076671      17.58423329      12.25488337
Al      12.63489976      15.59010024      12.33355745
Al      10.94899938      19.28514641       9.52990355
Al       9.05000000      17.15000000      15.10173676
Al       9.05000000      19.17500000      17.69866155
Al      11.07500000      17.15000000      17.69866155
Al      11.07500000      19.17500000      15.10173676
Al       9.05000000      21.20000000       5.00000000
Al       9.05000000      23.22500000       7.02500000
Al      11.07500000      21.20000000       7.02500000
Al      11.07500000      23.22500000       5.00000000
Al       8.99489678      21.16825766       9.56370192
Al       9.40911185      22.65115516      12.33383461
Al      11.43489884      20.60543402      12.33392466
Al      11.44565968      22.63039090       9.71077816
Al       9.05000000      21.20000000      15.10173676
Al       9.05000000      23.22500000      17.69866155
Al      11.07500000      21.20000000      17.69866155
Al      11.07500000      23.22500000      15.10173676
Al      13.10000000       5.00000000       5.00000000
Al      13.10000000       7.02500000       7.02500000
Al      15.12500000       5.00000000       7.02500000
Al      15.12500000       7.02500000       5.00000000
Al      12.95761663       5.56265223       9.72793107
Al      12.85376819       7.44751959      12.50601655
Al      15.02235614       5.51566029      12.35910595
Al      15.64174077       6.81170830       9.58894895
Al      13.10000000       5.00000000      15.10173676
Al      13.10000000       7.02500000      17.69866155
Al      15.12500000       5.00000000      17.69866155
Al      15.12500000       7.02500000      15.10173676
Al      13.10000000       9.05000000       5.00000000
Al      13.10000000      11.07500000       7.02500000
Al      15.12500000       9.05000000       7.02500000
Al      15.12500000      11.07500000       5.00000000
Al      13.62852681       8.68920903       9.75423336
Al      13.59816222      10.79397572      12.44479131
Al      15.47296452       8.76819402      12.40892456
Al      14.85008068      11.35833408       9.62147241
Al      13.10000000       9.05000000      15.10173676
Al      13.10000000      11.07500000      17.69866155
Al      15.12500000       9.05000000      17.69866155
Al      15.12500000      11.07500000      15.10173676
Al      13.10000000      13.10000000       5.00000000
Al      13.10000000      15.12500000       7.02500000
Al      15.12500000      13.10000000       7.02500000
Al      15.12500000      15.12500000       5.00000000
Al      12.87610780      13.37561285       9.54364255
Al      14.63436780      13.59063220      12.22605013
Al      14.84938715      15.34889220       9.54364255
Al      13.10000000      13.10000000      15.10173676
Al      13.10000000      15.12500000      17.69866155
Al      15.12500000      13.10000000      17.69866155
Al      15.12500000      15.12500000      15.10173676
Al      13.10000000      17.15000000       5.00000000
Al      13.10000000      19.17500000       7.02500000
Al      15.12500000      17.15000000       7.02500000
Al      15.12500000      19.17500000       5.00000000
Al      12.88344952      17.32793079       9.61933686
Al      13.46163974      18.63682781      12.41142487
Al      15.42380374      16.57623796      12.33523455
Al      15.46222835      18.50357091       9.72750400
Al      13.10000000      17.15000000      15.10173676
Al      13.10000000      19.17500000      17.69866155
Al      15.12500000      17.15000000      17.69866155
Al      15.12500000      19.17500000      15.10173676
Al      13.10000000      21.20000000       5.00000000
Al      13.10000000      23.22500000       7.02500000
Al      15.12500000      21.20000000       7.02500000
Al      15.12500000      23.22500000       5.00000000
Al      13.50173300      20.56060173       9.74846673
Al      12.78147855      23.14620555      12.52604580
Al      14.80520520      21.21645712      12.49126633
Al      14.66772158      23.19410331       9.78008380
Al      13.10000000      21.20000000      15.10173676
Al      13.10000000      23.22500000      17.69866155
Al      15.12500000      21.20000000      17.69866155
Al      15.12500000      23.22500000      15.10173676
Al      17.15000000       5.00000000       5.00000000
Al      17.15000000       7.02500000       7.02500000
Al      19.17500000       5.00000000       7.02500000
Al      19.17500000       7.02500000       5.00000000
Al      17.65765080       4.86689716       9.86466078
Al      17.54440884       6.96719677      12.41093366
Al      19.48026007       4.99496617      12.56327566
Al      18.81891510       7.43503321       9.57758016
Al      17.15000000       5.00000000      15.10173676
Al      17.15000000       7.02500000      17.69866155
Al      19.17500000       5.00000000      17.69866155
Al      19.17500000       7.02500000      15.10173676
Al      17.15000000       9.05000000       5.00000000
Al      17.15000000      11.07500000       7.02500000
Al      19.17500000       9.05000000       7.02500000
Al      19.17500000      11.07500000       5.00000000
Al      16.83114291       9.39527614       9.65158220
Al      16.61292618      11.61207382      12.31641481
Al      18.54662711       9.67837289      12.29183365
Al      18.82972386      11.39385709       9.65158220
Al      17.15000000       9.05000000      15.10173676
Al      17.15000000      11.07500000      17.69866155
Al      19.17500000       9.05000000      17.69866155
Al      19.17500000      11.07500000      15.10173676
Al      17.15000000      13.10000000       5.00000000
Al      17.15000000      15.12500000       7.02500000
Al      19.17500000      13.10000000       7.02500000
Al      19.17500000      15.12500000       5.00000000
Al      16.86666592      13.37491932       9.62147241
Al      17.43102428      14.62683778      12.44479131
Al      19.45680598      12.75203548      12.40892456
Al      19.53579097      14.59647319       9.75423336
Al      17.15000000      13.10000000      15.10173676
Al      17.15000000      15.12500000      17.69866155
Al      19.17500000      13.10000000      17.69866155
Al      19.17500000      15.12500000      15.10173676
Al      17.15000000      17.15000000       5.00000000
Al      17.15000000      19.17500000       7.02500000
Al      19.17500000      17.15000000       7.02500000
Al      19.17500000      19.17500000       5.00000000
Al      17.45076638      16.41094796       9.70591494
Al      16.61390083      19.14631141      12.52014330
Al      18.63089454      17.21813279      12.40705460
Al      18.34964389      19.00279085       9.79254847
Al      17.15000000      17.15000000      15.10173676
Al      17.15000000      19.17500000      17.69866155
Al      19.17500000      17.15000000      17.69866155
Al      19.17500000      19.17500000      15.10173676
Al      17.15000000      21.20000000       5.00000000
Al      17.15000000      23.22500000       7.02500000
Al      19.17500000      21.20000000       7.02500000
Al      19.17500000      23.22500000       5.00000000
Al      16.67568866      21.19014786       9.70771711
Al      17.09470331      22.98128803      12.38336786
Al      18.83570858      20.75008000      12.36724488
Al      19.12751616      22.78452019       9.65666867
Al      17.15000000      21.20000000      15.10173676
Al      17.15000000      23.22500000      17.69866155
Al      19.17500000      21.20000000      17.69866155
Al      19.17500000      23.22500000      15.10173676
Al      21.20000000       5.00000000       5.00000000
Al      21.20000000       7.02500000       7.02500000
Al      23.22500000       5.00000000       7.02500000
Al      23.22500000       7.02500000       5.00000000
Al      20.78093575       5.41478669       9.66999227
Al      20.49274052       7.73225948      12.19563837
Al      22.43022381       5.79477619      12.35981677
Al      22.81021331       7.44406425       9.66999227
Al      21.20000000       5.00000000      15.10173676
Al      21.20000000       7.02500000      17.69866155
Al      23.22500000       5.00000000      17.69866155
Al      23.22500000       7.02500000      15.10173676
Al      21.20000000       9.05000000       5.00000000
Al      21.20000000      11.07500000       7.02500000
Al      23.22500000       9.05000000       7.02500000
Al      23.22500000      11.07500000       5.00000000
Al      20.78996679       9.40608490       9.57758016
Al      21.25780323      10.68059116      12.41093366
Al      23.23003383       8.74473993      12.56327566
Al      23.35810284      10.56734920       9.86466078
Al      21.20000000       9.05000000      15.10173676
Al      21.20000000      11.07500000      17.69866155
Al      23.22500000       9.05000000      17.69866155
Al      23.22500000      11.07500000      15.10173676
Al      21.20000000      13.10000000       5.00000000
Al      21.20000000      15.12500000       7.02500000
Al      23.22500000      13.10000000       7.02500000
Al      23.22500000      15.12500000       5.00000000
Al      21.41329170      12.58325923       9.58894895
Al      20.77748041      15.37123181      12.50601655
Al      22.70933971      13.20264386      12.35910595
Al      22.66234777      15.26738337       9.72793107
Al      21.20000000      13.10000000      15.10173676
Al      21.20000000      15.12500000      17.69866155
Al      23.22500000      13.10000000      17.69866155
Al      23.22500000      15.12500000      15.10173676
Al      21.20000000      17.15000000       5.00000000
Al      21.20000000      19.17500000       7.02500000
Al      23.22500000      17.15000000       7.02500000
Al      23.22500000      19.17500000       5.00000000
Al      20.64126868      17.30212053       9.77556024
Al      20.86375258      18.85965757      12.57002846
Al      23.06137271      17.13696337      12.37580653
Al      23.06544671      18.96111093       9.59560389
Al      21.20000000      17.15000000      15.10173676
Al      21.20000000      19.17500000      17.69866155
Al      23.22500000      17.15000000      17.69866155
Al      23.22500000      19.17500000      15.10173676
Al      21.20000000      21.20000000       5.00000000
Al      21.20000000      23.22500000       7.02500000
Al      23.22500000      21.20000000       7.02500000
Al      23.22500000      23.22500000       5.00000000
Al      20.63419112      20.36141117       9.85067343
Al      20.79313384      22.72912015      12.43578066
Al      22.90765197      20.71544755      12.36801066
Al      22.41214631      22.38012161       9.71701402
Al      21.20000000      21.20000000      15.10173676
Al      21.20000000      23.22500000      17.69866155
Al      23.22500000      21.20000000      17.69866155
Al      23.22500000      23.22500000      15.10173676
