299
Lattice="28.224999999999998 0.0 0.0 0.0 28.224999999999998 0.0 0.0 0.0 20.125" Properties=species:S:1:pos:R:3:forces:R:3 energy=-16464.01075796813 pbc="T T T"
Al       5.00000000       5.00000000       5.00000000       0.33624080       0.33641960       0.22845753
Al       5.00000000       7.02500000       7.02500000      -0.29200103       0.38294143       0.87409924
Al       7.02500000       5.00000000       7.02500000       0.37372963      -0.29157436       0.86931050
Al       7.02500000       7.02500000       5.00000000       0.32988051       0.33009310      -0.64582399
Al       5.11965269       5.12191969       9.27886495       0.00631549       0.01020759       0.00875909
Al       5.00639514       7.10884057      11.48282917       0.00464433       0.01730825      -0.00024811
Al       7.09844684       4.98224056      11.48478666       0.01152655      -0.00351934       0.00080902
Al       7.11387135       7.11165209       9.25141746       0.03114924       0.03022510      -0.00806312
Al       5.00000000       5.00000000      13.68724690       0.42856899       0.44394813      -0.50495326
Al       5.00000000       7.02500000      15.88003173       0.09569505       0.46629797      -0.47012325
Al       7.02500000       5.00000000      15.88003173       0.46614378       0.09496223      -0.47186062
Al       7.02500000       7.02500000      13.68724690       0.32399192       0.32803843      -0.29438502
Al       5.00000000       9.05000000       5.00000000      -0.19174143      -0.03061385      -0.25211980
Al       5.00000000      11.07500000       7.02500000      -0.41618784      -0.01161412       0.90518806
Al       7.02500000       9.05000000       7.02500000       0.26555196       0.03437481       1.05869586
Al       7.02500000      11.07500000       5.00000000       0.33859190      -0.00918384      -0.69881740
Al       4.93324554       9.04497451       9.22248918      -0.00091311       0.00914714      -0.00320324
Al       4.90344416      11.05655857      11.46747871       0.00432794       0.00510045      -0.00878114
Al       7.07611065       9.10475899      11.46283155       0.03418343       0.02724313       0.00190848
Al       7.02759936      11.07743660       9.24505190       0.02670783       0.01051571      -0.00914269
Al       5.00000000       9.05000000      13.68724690      -0.19937288       0.05400611      -0.18752393
Al       5.00000000      11.07500000      15.88003173      -0.01088501      -0.01306913      -0.37368371
Al       7.02500000       9.05000000      15.88003173       0.33894326      -0.03409980      -0.09294885
Al       7.02500000      11.07500000      13.68724690       0.25313803       0.02901371      -0.32809933
Al       5.00000000      13.10000000       5.00000000      -0.19438504      -0.00296871      -0.25232234
Al       5.00000000      15.12500000       7.02500000      -0.43715840       0.01548620       0.92279331
Al       7.02500000      13.10000000       7.02500000       0.23097351       0.00186787       1.14141836
Al       7.02500000      15.12500000       5.00000000       0.33968470       0.00255121      -0.69764713
Al       4.90638716      13.09377876       9.23055382       0.00767622       0.00200369      -0.00034466
Al       4.90986525      15.12973571      11.46759119       0.01104111      -0.00295010      -0.00969695
Al       7.00161898      13.08734446      11.45390488       0.02629630      -0.00041200       0.00156836
Al       7.00790736      15.13111874       9.24329938       0.02656761      -0.00409983      -0.00944205
Al       5.00000000      13.10000000      13.68724690      -0.25520817      -0.01512293      -0.30674049
Al       5.00000000      15.12500000      15.88003173      -0.01043066       0.00342109      -0.37344240
Al       7.02500000      13.10000000      15.88003173       0.34252928      -0.00294468      -0.09398025
Al       7.02500000      15.12500000      13.68724690       0.18655115       0.00341341      -0.32752060
Al       5.00000000      17.15000000       5.00000000      -0.19468537       0.01208812      -0.25239667
Al       5.00000000      19.17500000       7.02500000      -0.39069772      -0.05694450       0.79463484
Al       7.02500000      17.15000000       7.02500000       0.23706536      -0.01871997       1.10458044
Al       7.02500000      19.17500000       5.00000000       0.33581031       0.03154303      -0.69684945
Al       4.90709732      17.16755353       9.23174805       0.00111102      -0.00727175      -0.00147068
Al       4.91789560      19.18855975      11.47821080      -0.00296266      -0.00615836      -0.00573199
Al       7.00813953      17.16510961      11.45636012       0.02178710      -0.00679704       0.00360409
Al       7.06175000      19.13838603       9.23855258       0.02582770      -0.01965143      -0.01028465
Al       5.00000000      17.15000000      13.68724690      -0.25027414       0.01415649      -0.28207354
Al       5.00000000      19.17500000      15.88003173      -0.00850526       0.03314729      -0.37490945
Al       7.02500000      17.15000000      15.88003173       0.34203474       0.01003596      -0.09330881
Al       7.02500000      19.17500000      13.68724690       0.28697022      -0.03629734      -0.28390060
Al       5.00000000      21.20000000       5.00000000      -0.09273980      -0.45634036      -0.15818051
Al       5.00000000      23.22500000       7.02500000       0.20888584      -0.20888584       0.92774924
Al       7.02500000      21.20000000       7.02500000       0.33012145      -0.33012145       1.06407401
Al       7.02500000      23.22500000       5.00000000       0.45634036       0.09273980      -0.15818051
Al       4.99748053      21.11996683       9.21570352      -0.00573572      -0.01367904      -0.01201117
Al       5.13474101      23.09025899      11.42213255       0.01734102      -0.01734102      -0.01865808
Al       7.13575242      21.08924758      11.44958924       0.04062089      -0.04062089       0.00313788
Al       7.10503317      23.22751947       9.21570352       0.01367904       0.00573572      -0.01201117
Al       5.00000000      21.20000000      13.68724690      -0.09344618      -0.38850331      -0.24830727
Al       5.00000000      23.22500000      15.88003173       0.55282846      -0.55282846      -0.65551706
Al       7.02500000      21.20000000      15.88003173       0.33244609      -0.33244609      -0.14123028
Al       7.02500000      23.22500000      13.68724690       0.38850331       0.09344618      -0.24830727
Al       9.05000000       5.00000000       5.00000000      -0.03076541      -0.19219364      -0.25114817
Al       9.05000000       7.02500000       7.02500000       0.02314408       0.25948796       1.05507699
Al      11.07500000       5.00000000       7.02500000      -0.01296120      -0.42788771       0.89893754
Al      11.07500000       7.02500000       5.00000000      -0.00896550       0.33889122      -0.69767524
Al       9.03938779       4.92081684       9.22167282       0.00866092      -0.00125912      -0.00358515
Al       9.07217794       7.04549832      11.46294558       0.01617040       0.02396256       0.00163509
Al      11.05979112       4.91020711      11.46735726       0.00751995       0.00913001      -0.00907124
Al      11.06377129       7.01525838       9.24220167       0.00977187       0.02543436      -0.00837603
Al       9.05000000       5.00000000      13.68724690       0.05161524      -0.21949635      -0.17637275
Al       9.05000000       7.02500000      15.88003173      -0.03391611       0.33892746      -0.09415076
Al      11.07500000       5.00000000      15.88003173      -0.01296059      -0.01047898      -0.37333437
Al      11.07500000       7.02500000      13.68724690       0.01121858       0.21073862      -0.30435380
Al       9.05000000       9.05000000       5.00000000      -0.02936794      -0.02921040      -0.75653256
Al       9.05000000      11.07500000       7.02500000      -0.00119919       0.04716730       1.04688880
Al      11.07500000       9.05000000       7.02500000       0.01938330      -0.00661046       1.03829817
Al      11.07500000      11.07500000       5.00000000      -0.00621095      -0.00605082      -0.75303471
Al       9.09093182       9.09420396       9.23499766       0.02779048       0.02695592      -0.00640794
Al       9.11464071      11.14283359      11.46939197       0.03877490       0.03043876      -0.00003367
Al      11.07592220       9.04506997      11.46732364       0.01755776       0.02242378      -0.00055683
Al      11.09682482      11.09966947       9.24685910       0.02435562       0.02069922      -0.00689393
Al       9.05000000       9.05000000      13.68724690       0.00712073       0.02913730      -0.23733939
Al       9.05000000      11.07500000      15.88003173      -0.03173623      -0.00985216      -0.03600205
Al      11.07500000       9.05000000      15.88003173      -0.00980853      -0.03157926      -0.03848077
Al      11.07500000      11.07500000      13.68724690       0.04863996       0.08490748      -0.30711689
Al       9.05000000      13.10000000       5.00000000      -0.02649600      -0.00098085      -0.75554036
Al       9.05000000      15.12500000       7.02500000      -0.04274466      -0.00599106       1.03723962
Al      11.07500000      13.10000000       7.02500000      -0.02826367      -0.01555378       0.97773842
Al      11.07500000      15.12500000       5.00000000      -0.00365147       0.00149257      -0.74345817
Al       9.05461347      13.11244364       9.24466081       0.02321002       0.00374294      -0.00605105
Al       9.01363007      15.12701460      11.46736881       0.01990744      -0.00533807      -0.00136727
Al      11.22041831      13.25112618      11.46633421       0.02992724       0.01647743      -0.00892722
Al      11.09094458      15.12303475       9.22045429       0.01613917      -0.00985431      -0.02518091
Al       9.05000000      13.10000000      13.68724690       0.04259153       0.05421521      -0.32306105
Al       9.05000000      15.12500000      15.88003173      -0.03042512       0.00281819      -0.03967071
Al      11.07500000      13.10000000      15.88003173      -0.01207358      -0.00581735      -0.03148233
Al      11.07500000      15.12500000      13.68724690       0.11328551      -0.00272332      -0.09502542
Al       9.05000000      17.15000000       5.00000000      -0.02755406       0.00758057      -0.75556543
Al       9.05000000      19.17500000       7.02500000       0.02529079      -0.02529079       1.02076621
Al      11.07500000      17.15000000       7.02500000      -0.01479972       0.01479972       0.96656323
Al      11.07500000      19.17500000       5.00000000      -0.00758057       0.02755406      -0.75556543
Al       9.07151622      17.12823683       9.24257674       0.02625035      -0.02077578      -0.00784403
Al       9.14507014      19.07992986      11.46886769       0.04187175      -0.04187175       0.00235976
Al      11.23546816      16.98953184      11.46450107       0.03556324      -0.03556324      -0.00996624
Al      11.09676317      19.15348378       9.24257674       0.02077578      -0.02625035      -0.00784403
Al       9.05000000      17.15000000      13.68724690       0.05464083      -0.06769368      -0.29382777
Al       9.05000000      19.17500000      15.88003173      -0.03180719       0.03180719      -0.03415859
Al      11.07500000      17.15000000      15.88003173      -0.01251019       0.01251019      -0.02978835
Al      11.07500000      19.17500000      13.68724690       0.06769368      -0.05464083      -0.29382777
Al       9.05000000      21.20000000       5.00000000      -0.03154303      -0.33581031      -0.69684945
Al       9.05000000      23.22500000       7.02500000       0.05694450       0.39069772       0.79463484
Al      11.07500000      21.20000000       7.02500000       0.01871997      -0.23706536       1.10458044
Al      11.07500000      23.22500000       5.00000000      -0.01208812       0.19468537      -0.25239667
Al       9.08661397      21.16325000       9.23855258       0.01965143      -0.02582770      -0.01028465
Al       9.03644025      23.30710440      11.47821080       0.00615836       0.00296266      -0.00573199
Al      11.05989039      21.21686047      11.45636012       0.00679704      -0.02178710       0.00360409
Al      11.05744647      23.31790268       9.23174805       0.00727175      -0.00111102      -0.00147068
Al       9.05000000      21.20000000      13.68724690       0.03629734      -0.28697022      -0.28390060
Al       9.05000000      23.22500000      15.88003173      -0.03314729       0.00850526      -0.37490945
Al      11.07500000      21.20000000      15.88003173      -0.01003596      -0.34203474      -0.09330881
Al      11.07500000      23.22500000      13.68724690      -0.01415649       0.25027414      -0.28207354
Al      13.10000000       5.00000000       5.00000000      -0.00295186      -0.19398322      -0.25284006
Al      13.10000000       7.02500000       7.02500000      -0.00332111       0.20217764       1.11922604
Al      15.12500000       5.00000000       7.02500000       0.01550262      -0.43350652       0.92530292
Al      15.12500000       7.02500000       5.00000000       0.00265964       0.34000506      -0.69723256
Al      13.09510029       4.91041683       9.23149911       0.00351883       0.01238539      -0.00013598
Al      13.09412312       7.01115052      11.45363114       0.00415333       0.02850316      -0.00154719
Al      15.12957626       4.91007693      11.46826628      -0.00191960       0.01596823      -0.01075467
Al      15.13351295       7.00865147       9.24454778      -0.00078104       0.02959057      -0.00664934
Al      13.10000000       5.00000000      13.68724690      -0.01412571      -0.24593129      -0.31191359
Al      13.10000000       7.02500000      15.88003173      -0.00310816       0.34201558      -0.09381174
Al      15.12500000       5.00000000      15.88003173       0.00376789      -0.01047961      -0.37363962
Al      15.12500000       7.02500000      13.68724690       0.00564157       0.20252143      -0.33809373
Al      13.10000000       9.05000000       5.00000000      -0.00160587      -0.02742330      -0.75441528
Al      13.10000000      11.07500000       7.02500000       0.00061808      -0.01041191       1.03569330
Al      15.12500000       9.05000000       7.02500000      -0.00818856      -0.01987539       1.06053434
Al      15.12500000      11.07500000       5.00000000       0.00090484      -0.00534192      -0.75146795
Al      13.09778889       9.03382672       9.23207656       0.00633928       0.02040583      -0.00592189
Al      13.10328111      11.04483687      11.46741530       0.00990561       0.01458090      -0.00197970
Al      15.13422233       9.02750497      11.46578600      -0.00097656       0.01934621      -0.00265330
Al      15.10837800      11.08738528       9.24621238      -0.00680229       0.01774094      -0.00742739
Al      13.10000000       9.05000000      13.68724690       0.00573581      -0.07052435      -0.24436009
Al      13.10000000      11.07500000      15.88003173      -0.00263961      -0.00800310      -0.04418121
Al      15.12500000       9.05000000      15.88003173       0.00271802      -0.03105051      -0.03911118
Al      15.12500000      11.07500000      13.68724690      -0.04903845       0.07167446      -0.31496889
Al      13.10000000      13.10000000       5.00000000      -0.00093928       0.00155603      -0.74124890
Al      13.10000000      15.12500000       7.02500000      -0.00556749       0.00556749       0.79543598
Al      15.12500000      13.10000000       7.02500000       0.01975415      -0.01975415       0.98434460
Al      15.12500000      15.12500000       5.00000000      -0.00155603       0.00093928      -0.74124890
Al      13.09972545      13.12249822       9.22306121       0.00970974       0.00298807      -0.02370017
Al      14.97255207      13.25244793      11.46691893      -0.01818744       0.01818744      -0.00917743
Al      15.10250178      15.12527455       9.22306121      -0.00298807      -0.00970974      -0.02370017
Al      13.10000000      13.10000000      13.68724690      -0.01056726       0.12547897      -0.10824694
Al      13.10000000      15.12500000      15.88003173      -0.00239612       0.00239612       0.04860976
Al      15.12500000      13.10000000      15.88003173       0.00556961      -0.00556961      -0.03403946
Al      15.12500000      15.12500000      13.68724690      -0.12547897       0.01056726      -0.10824694
Al      13.10000000      17.15000000       5.00000000      -0.00149257       0.00365147      -0.74345817
Al      13.10000000      19.17500000       7.02500000       0.00599106       0.04274466       1.03723962
Al      15.12500000      17.15000000       7.02500000       0.01555378       0.02826367       0.97773842
Al      15.12500000      19.17500000       5.00000000       0.00098085       0.02649600      -0.75554036
Al      13.10196525      17.13405542       9.22045429       0.00985431      -0.01613917      -0.02518091
Al      13.09798540      19.21136993      11.46736881       0.00533807      -0.01990744      -0.00136727
Al      14.97387382      17.00458169      11.46633421      -0.01647743      -0.02992724      -0.00892722
Al      15.11255636      19.17038653       9.24466081      -0.00374294      -0.02321002      -0.00605105
Al      13.10000000      17.15000000      13.68724690       0.00272332      -0.11328551      -0.09502542
Al      13.10000000      19.17500000      15.88003173      -0.00281819       0.03042512      -0.03967071
Al      15.12500000      17.15000000      15.88003173       0.00581735       0.01207358      -0.03148233
Al      15.12500000      19.17500000      13.68724690      -0.05421521      -0.04259153      -0.32306105
Al      13.10000000      21.20000000       5.00000000      -0.00255121      -0.33968470      -0.69764713
Al      13.10000000      23.22500000       7.02500000      -0.01548620       0.43715840       0.92279331
Al      15.12500000      21.20000000       7.02500000      -0.00186787      -0.23097351       1.14141836
Al      15.12500000      23.22500000       5.00000000       0.00296871       0.19438504      -0.25232234
Al      13.09388126      21.21709264       9.24329938       0.00409983      -0.02656761      -0.00944205
Al      13.09526429      23.31513475      11.46759119       0.00295010      -0.01104111      -0.00969695
Al      15.13765554      21.22338102      11.45390488       0.00041200      -0.02629630       0.00156836
Al      15.13122124      23.31861284       9.23055382      -0.00200369      -0.00767622      -0.00034466
Al      13.10000000      21.20000000      13.68724690      -0.00341341      -0.18655115      -0.32752060
Al      13.10000000      23.22500000      15.88003173      -0.00342109       0.01043066      -0.37344240
Al      15.12500000      21.20000000      15.88003173       0.00294468      -0.34252928      -0.09398025
Al      15.12500000      23.22500000      13.68724690       0.01512293       0.25520817      -0.30674049
Al      17.15000000       5.00000000       5.00000000       0.01241484      -0.19437879      -0.25252365
Al      17.15000000       7.02500000       7.02500000      -0.01424860       0.22487738       1.09621484
Al      19.17500000       5.00000000       7.02500000      -0.05329736      -0.39456350       0.79584638
Al      19.17500000       7.02500000       5.00000000       0.03169453       0.33599628      -0.69589533
Al      17.16700732       4.90732403       9.23213334      -0.00662422       0.00714787      -0.00066944
Al      17.16242136       7.01182326      11.45630829      -0.00633621       0.02436856      -0.00088605
Al      19.18676389       4.92089416      11.47801648      -0.00641780       0.00377503      -0.00694104
Al      19.14329647       7.05584883       9.23703055      -0.01965824       0.02859283      -0.00675984
Al      17.15000000       5.00000000      13.68724690       0.01423254      -0.24567975      -0.28370343
Al      17.15000000       7.02500000      15.88003173       0.01075537       0.34113183      -0.09345623
Al      19.17500000       5.00000000      15.88003173       0.03330534      -0.00777052      -0.37507792
Al      19.17500000       7.02500000      13.68724690      -0.02444598       0.26723556      -0.27751651
Al      17.15000000       9.05000000       5.00000000       0.00862339      -0.02850457      -0.75539522
Al      17.15000000      11.07500000       7.02500000      -0.02949276       0.02949276       1.05416252
Al      19.17500000       9.05000000       7.02500000      -0.00858878       0.00858878       1.00811909
Al      19.17500000      11.07500000       5.00000000       0.02850457      -0.00862339      -0.75539522
Al      17.13369100       9.06537747       9.23561264      -0.01933839       0.02724678      -0.00480003
Al      17.08147549      11.14352451      11.46773074      -0.03405380       0.03405380      -0.00261756
Al      19.11599726       9.10900274      11.46738277      -0.03455137       0.03455137      -0.00203082
Al      19.15962253      11.09130900       9.23561264      -0.02724678       0.01933839      -0.00480003
Al      17.15000000       9.05000000      13.68724690      -0.02979427       0.00215823      -0.25819839
Al      17.15000000      11.07500000      15.88003173       0.00925139      -0.00925139      -0.03950720
Al      19.17500000       9.05000000      15.88003173       0.03259875      -0.03259875      -0.03550429
Al      19.17500000      11.07500000      13.68724690      -0.00215823       0.02979427      -0.25819839
Al      17.15000000      13.10000000       5.00000000       0.00534192      -0.00090484      -0.75146795
Al      17.15000000      15.12500000       7.02500000       0.01041191      -0.00061808       1.03569330
Al      19.17500000      13.10000000       7.02500000       0.01987539       0.00818856       1.06053434
Al      19.17500000      15.12500000       5.00000000       0.02742330       0.00160587      -0.75441528
Al      17.13761472      13.11662200       9.24621238      -0.01774094       0.00680229      -0.00742739
Al      17.18016313      15.12171889      11.46741530      -0.01458090      -0.00990561      -0.00197970
Al      19.19749503      13.09077767      11.46578600      -0.01934621       0.00097656      -0.00265330
Al      19.19117328      15.12721111       9.23207656      -0.02040583      -0.00633928      -0.00592189
Al      17.15000000      13.10000000      13.68724690      -0.07167446       0.04903845      -0.31496889
Al      17.15000000      15.12500000      15.88003173       0.00800310       0.00263961      -0.04418121
Al      19.17500000      13.10000000      15.88003173       0.03105051      -0.00271802      -0.03911118
Al      19.17500000      15.12500000      13.68724690       0.07052435      -0.00573581      -0.24436009
Al      17.15000000      17.15000000       5.00000000       0.00605082       0.00621095      -0.75303471
Al      17.15000000      19.17500000       7.02500000      -0.04716730       0.00119919       1.04688880
Al      19.17500000      17.15000000       7.02500000       0.00661046      -0.01938330       1.03829817
Al      19.17500000      19.17500000       5.00000000       0.02921040       0.02936794      -0.75653256
Al      17.12533053      17.12817518       9.24685910      -0.02069922      -0.02435562      -0.00689393
Al      17.08216641      19.11035929      11.46939197      -0.03043876      -0.03877490      -0.00003367
Al      19.17993003      17.14907780      11.46732364      -0.02242378      -0.01755776      -0.00055683
Al      19.13079604      19.13406818       9.23499766      -0.02695592      -0.02779048      -0.00640794
Al      17.15000000      17.15000000      13.68724690      -0.08490748      -0.04863996      -0.30711689
Al      17.15000000      19.17500000      15.88003173       0.00985216       0.03173623      -0.03600205
Al      19.17500000      17.15000000      15.88003173       0.03157926       0.00980853      -0.03848077
Al      19.17500000      19.17500000      13.68724690      -0.02913730      -0.00712073      -0.23733939
Al      17.15000000      21.20000000       5.00000000       0.00918384      -0.33859190      -0.69881740
Al      17.15000000      23.22500000       7.02500000       0.01161412       0.41618784       0.90518806
Al      19.17500000      21.20000000       7.02500000      -0.03437481      -0.26555196       1.05869586
Al      19.17500000      23.22500000       5.00000000       0.03061385       0.19174143      -0.25211980
Al      17.14756340      21.19740064       9.24505190      -0.01051571      -0.02670783      -0.00914269
Al      17.16844143      23.32155584      11.46747871      -0.00510045      -0.00432794      -0.00878114
Al      19.12024101      21.14888935      11.46283155      -0.02724313      -0.03418343       0.00190848
Al      19.18002549      23.29175446       9.22248918      -0.00914714       0.00091311      -0.00320324
Al      17.15000000      21.20000000      13.68724690      -0.02901371      -0.25313803      -0.32809933
Al      17.15000000      23.22500000      15.88003173       0.01306913       0.01088501      -0.37368371
Al      19.17500000      21.20000000      15.88003173       0.03409980      -0.33894326      -0.09294885
Al      19.17500000      23.22500000      13.68724690      -0.05400611       0.19937288      -0.18752393
Al      21.20000000       5.00000000       5.00000000      -0.45633288      -0.09250652      -0.15786566
Al      21.20000000       7.02500000       7.02500000      -0.32098586       0.32098586       1.06688770
Al      23.22500000       5.00000000       7.02500000      -0.20655754       0.20655754       0.92064968
Al      23.22500000       7.02500000       5.00000000       0.09250652       0.45633288      -0.15786566
Al      21.12375243       4.99259932       9.21614912      -0.01487346       0.00042709      -0.01100654
Al      21.10574142       7.11925858      11.44934980      -0.03751373       0.03751373      -0.00026335
Al      23.09997613       5.12502387      11.42402210      -0.01755156       0.01755156      -0.01778280
Al      23.23240068       7.10124757       9.21614912      -0.00042709       0.01487346      -0.01100654
Al      21.20000000       5.00000000      13.68724690      -0.38455609      -0.10131943      -0.24942501
Al      21.20000000       7.02500000      15.88003173      -0.33245042       0.33245042      -0.14248084
Al      23.22500000       5.00000000      15.88003173      -0.55292920       0.55292920      -0.65679219
Al      23.22500000       7.02500000      13.68724690       0.10131943       0.38455609      -0.24942501
Al      21.20000000       9.05000000       5.00000000      -0.33599628      -0.03169453      -0.69589533
Al      21.20000000      11.07500000       7.02500000      -0.22487738       0.01424860       1.09621484
Al      23.22500000       9.05000000       7.02500000       0.39456350       0.05329736       0.79584638
Al      23.22500000      11.07500000       5.00000000       0.19437879      -0.01241484      -0.25252365
Al      21.16915117       9.08170353       9.23703055      -0.02859283       0.01965824      -0.00675984
Al      21.21317674      11.06257864      11.45630829      -0.02436856       0.00633621      -0.00088605
Al      23.30410584       9.03823611      11.47801648      -0.00377503       0.00641780      -0.00694104
Al      23.31767597      11.05799268       9.23213334      -0.00714787       0.00662422      -0.00066944
Al      21.20000000       9.05000000      13.68724690      -0.26723556       0.02444598      -0.27751651
Al      21.20000000      11.07500000      15.88003173      -0.34113183      -0.01075537      -0.09345623
Al      23.22500000       9.05000000      15.88003173       0.00777052      -0.03330534      -0.37507792
Al      23.22500000      11.07500000      13.68724690       0.24567975      -0.01423254      -0.28370343
Al      21.20000000      13.10000000       5.00000000      -0.34000506      -0.00265964      -0.69723256
Al      21.20000000      15.12500000       7.02500000      -0.20217764       0.00332111       1.11922604
Al      23.22500000      13.10000000       7.02500000       0.43350652      -0.01550262       0.92530292
Al      23.22500000      15.12500000       5.00000000       0.19398322       0.00295186      -0.25284006
Al      21.21634853      13.09148705       9.24454778      -0.02959057       0.00078104      -0.00664934
Al      21.21384948      15.13087688      11.45363114      -0.02850316      -0.00415333      -0.00154719
Al      23.31492307      13.09542374      11.46826628      -0.01596823       0.00191960      -0.01075467
Al      23.31458317      15.12989971       9.23149911      -0.01238539      -0.00351883      -0.00013598
Al      21.20000000      13.10000000      13.68724690      -0.20252143      -0.00564157      -0.33809373
Al      21.20000000      15.12500000      15.88003173      -0.34201558       0.00310816      -0.09381174
Al      23.22500000      13.10000000      15.88003173       0.01047961      -0.00376789      -0.37363962
Al      23.22500000      15.12500000      13.68724690       0.24593129       0.01412571      -0.31191359
Al      21.20000000      17.15000000       5.00000000      -0.33889122       0.00896550      -0.69767524
Al      21.20000000      19.17500000       7.02500000      -0.25948796      -0.02314408       1.05507699
Al      23.22500000      17.15000000       7.02500000       0.42788771       0.01296120       0.89893754
Al      23.22500000      19.17500000       5.00000000       0.19219364       0.03076541      -0.25114817
Al      21.20974162      17.16122871       9.24220167      -0.02543436      -0.00977187      -0.00837603
Al      21.17950168      19.15282206      11.46294558      -0.02396256      -0.01617040       0.00163509
Al      23.31479289      17.16520888      11.46735726      -0.00913001      -0.00751995      -0.00907124
Al      23.30418316      19.18561221       9.22167282       0.00125912      -0.00866092      -0.00358515
Al      21.20000000      17.15000000      13.68724690      -0.21073862      -0.01121858      -0.30435380