299
Lattice="28.224999999999998 0.0 0.0 0.0 28.224999999999998 0.0 0.0 0.0 20.125" Properties=species:S:1:pos:R:3:forces:R:3 energy=-16366.606986708839 pbc="T T T"
Al       5.00000000       5.00000000       5.00000000       0.42925072       0.43141068      -0.21212215
Al       5.00000000       7.02500000       7.02500000      -0.19565611       0.61915097       0.93512181
Al       7.02500000       5.00000000       7.02500000       0.66892184      -0.48198034       0.77515497
Al       7.02500000       7.02500000       5.00000000       0.32203018       0.31859379      -0.81618590
Al       6.97763171       6.83204872       9.21214572       0.04828091      -0.04040661       0.01852284
Al       6.08056994       7.44697089      12.97089867       0.06585207       0.00516270       0.01594738
Al       7.86764056       5.22371575      12.16670636      -0.06649816      -0.11070574      -0.01333059
Al       8.74598294       7.77527144      11.17206348       0.08124895       0.17029913       0.24576267
Al       5.00000000       5.00000000      15.66090798       1.16633789       1.12949387       0.27805408
Al       5.00000000       7.02500000      18.41759597       0.35883452       0.49222969      -1.24913408
Al       7.02500000       5.00000000      18.41759597       0.49054656       0.36543165      -1.24137399
Al       7.02500000       7.02500000      15.66090798       0.43505757       0.34332437       1.20173456
Al       5.00000000       9.05000000       5.00000000      -0.12841331      -0.04959506      -0.62129858
Al       5.00000000      11.07500000       7.02500000      -0.11938176       0.00389491       1.55712034
Al       7.02500000       9.05000000       7.02500000      -0.09375102       0.04279593       1.46409738
Al       7.02500000      11.07500000       5.00000000       0.34032317      -0.02239914      -0.88093771
Al       6.02112642       9.11944987      10.46318025       0.11729561       0.11597272       0.06604924
Al       5.52463085      11.49899988      12.35979001       0.05442968       0.04159439      -0.11050857
Al       7.70959024       9.77699773      13.18244818       0.12253211      -0.11381046      -0.02856050
Al       6.92875088      11.48338917       9.38622859       0.19124189      -0.19557693      -0.08251653
Al       5.00000000       9.05000000      15.66090798       0.51153233       0.09159469       0.12472249
Al       5.00000000      11.07500000      18.41759597       0.25376658      -0.01746791      -1.15168108
Al       7.02500000       9.05000000      18.41759597       0.35719461      -0.04313526      -1.23984792
Al       7.02500000      11.07500000      15.66090798       0.19493087       0.25343146       0.79192470
Al       5.00000000      13.10000000       5.00000000      -0.14728490      -0.01365172      -0.56578721
Al       5.00000000      15.12500000       7.02500000      -0.15338508       0.18156685       1.19734869
Al       7.02500000      13.10000000       7.02500000       0.40560580       0.36777233       1.11295894
Al       7.02500000      15.12500000       5.00000000       0.32613338      -0.00868569      -0.96513101
Al       5.73193505      13.95552135       9.67752324       0.03242722      -0.21286620       0.16965883
Al       5.32546066      15.31290094      12.60598039       0.03730789      -0.09249759       0.07248155
Al       7.31013358      13.34143623      13.41190146      -0.02845368      -0.04066443      -0.02599740
Al       8.00973158      15.07578788      10.93100208      -0.00457387      -0.13751551       0.09011530
Al       5.00000000      13.10000000      15.66090798       0.33521722       0.06057464       0.02890038
Al       5.00000000      15.12500000      18.41759597       0.24769094      -0.00387290      -1.16640750
Al       7.02500000      13.10000000      18.41759597       0.35699326      -0.00814552      -1.24625796
Al       7.02500000      15.12500000      15.66090798       0.14846234      -0.03907773       1.37056642
Al       5.00000000      17.15000000       5.00000000      -0.16165537       0.00693544      -0.58643305
Al       5.00000000      19.17500000       7.02500000      -0.27519774      -0.26367316       1.00741196
Al       7.02500000      17.15000000       7.02500000       0.13261155       0.09526571       1.30218922
Al       7.02500000      19.17500000       5.00000000       0.31627669       0.03478430      -0.93775333
Al       5.89921270      16.88206368       9.74814364       0.02833476       0.05315401       0.00424595
Al       5.64088770      18.57249803      12.95815695       0.00931210      -0.00091860      -0.04357219
Al       7.67717885      16.63129029      13.39298392      -0.09193459      -0.06883309      -0.05238790
Al       7.99592868      18.28889228      11.25871368      -0.10256360       0.10370865      -0.00468020
Al       5.00000000      17.15000000      15.66090798       0.41543833      -0.20026248       0.22361346
Al       5.00000000      19.17500000      18.41759597       0.24204356       0.03513698      -1.16975623
Al       7.02500000      17.15000000      18.41759597       0.35701595       0.00268015      -1.24285544
Al       7.02500000      19.17500000      15.66090798      -0.29128852      -0.06643124       1.18630722
Al       5.00000000      21.20000000       5.00000000      -0.05964889      -0.44136017      -0.53291582
Al       5.00000000      23.22500000       7.02500000       0.63266399      -0.63266397       0.64967013
Al       7.02500000      21.20000000       7.02500000       0.29165285      -0.29165276       0.67148005
Al       7.02500000      23.22500000       5.00000000       0.44136017       0.05964889      -0.53291581
Al       6.42785256      19.80056162       9.51183195       0.18484844      -0.29011149       0.05638634
Al       7.05607658      21.16892342      12.89117992       0.05621750      -0.05621750      -0.04472657
Al       8.94348152      19.28151847      13.72717614       0.19234206      -0.19234206      -0.50022471
Al       8.42443830      21.79714762       9.51183200       0.29011141      -0.18484831       0.05638639
Al       5.00000000      21.20000000      15.66090798       0.57575097      -0.78580103       0.45181764
Al       5.00000000      23.22500000      18.41759597       0.88870677      -0.88870677      -0.97911262
Al       7.02500000      21.20000000      18.41759597       0.34200202      -0.34200203      -1.26693423
Al       7.02500000      23.22500000      15.66090798       0.78580102      -0.57575097       0.45181764
Al       9.05000000       5.00000000       5.00000000      -0.04192000      -0.16237076      -0.46544581
Al       9.05000000       7.02500000       7.02500000       0.14056147       0.60154375       1.48520290
Al      11.07500000       5.00000000       7.02500000       0.22683533      -0.09743710       1.09289562
Al      11.07500000       7.02500000       5.00000000      -0.02496567       0.32720201      -0.90469086
Al       9.40781814       5.29944939       9.40972147       0.03867433       0.02206988       0.13355113
Al       9.20142180       7.14433272      13.67851028       0.06526880       0.27242061       0.37033880
Al      11.06479034       5.81797840      11.94885081       0.01501074      -0.00739867      -0.03879604
Al      11.11802591       7.63619541       9.46921810       0.12148781       0.14828315       0.01090208
Al       9.05000000       5.00000000      15.66090798      -0.07577922       0.01726869       0.37928857
Al       9.05000000       7.02500000      18.41759597      -0.03898540       0.35839810      -1.27892107
Al      11.07500000       5.00000000      18.41759597      -0.01624817       0.26085124      -1.15488597
Al      11.07500000       7.02500000      15.66090798       0.35755053       0.27334221       1.63772743
Al       9.05000000       9.05000000       5.00000000      -0.05356930      -0.03503586      -0.90976758
Al       9.05000000      11.07500000       7.02500000       0.12515916       0.48478870       0.76805878
Al      11.07500000       9.05000000       7.02500000       0.07098825       0.30809298       1.13404440
Al      11.07500000      11.07500000       5.00000000      -0.03154708      -0.01627886      -0.97216175
Al       8.85772650       9.43046124       9.17723741       0.05175420       0.19261341      -0.06332002
Al       8.88945688      11.79932849      11.60551890      -0.02476336      -0.14835143      -0.07821609
Al      10.74301954       9.61558633      12.62285643      -0.11205841       0.04141410       0.00658468
Al      11.33956632      10.82370805       9.65769897       0.15259028       0.00644916       0.03624315
Al       9.05000000       9.05000000      15.66090798       0.20758682       0.49185178       1.43187403
Al       9.05000000      11.07500000      18.41759597      -0.04244811      -0.01666466      -1.16703155
Al      11.07500000       9.05000000      18.41759597      -0.01574883      -0.04528072      -1.18656502
Al      11.07500000      11.07500000      15.66090798      -0.04886037      -0.05132778      -0.17924728
Al       9.05000000      13.10000000       5.00000000      -0.03852421      -0.02853947      -0.93345776
Al       9.05000000      15.12500000       7.02500000      -0.13382028      -0.14684678       1.42324309
Al      11.07500000      13.10000000       7.02500000       0.21485440      -0.11116921       0.87102216
Al      11.07500000      15.12500000       5.00000000      -0.02390070      -0.01364994      -1.02038645
Al       9.29690079      13.15071312       9.17487939       0.00454296      -0.02901872      -0.00519527
Al       9.79576547      14.76783208      13.19258345      -0.01388848      -0.02612536      -0.00755498
Al      11.56095047      12.82622222      12.16799308      -0.07180948      -0.09957291      -0.09932464
Al      10.93732527      15.27076968      10.30136153       0.24218984      -0.00802241      -0.03311901
Al       9.05000000      13.10000000      15.66090798       0.35128889      -0.22749685       0.81553113
Al       9.05000000      15.12500000      18.41759597      -0.03479215      -0.00790163      -1.19337973
Al      11.07500000      13.10000000      18.41759597      -0.00553169      -0.00004859      -1.16643788
Al      11.07500000      15.12500000      15.66090798       0.10735682       0.18746502       1.30478206
Al       9.05000000      17.15000000       5.00000000      -0.02286132       0.01284865      -0.92772881
Al       9.05000000      19.17500000       7.02500000      -0.54289748       0.54289753       1.69351487
Al      11.07500000      17.15000000       7.02500000       0.51985210      -0.51985209       1.41178452
Al      11.07500000      19.17500000       5.00000000      -0.01284865       0.02286132      -0.92772881
Al       9.06101442      17.09777863       9.11662230      -0.04648010       0.03061469      -0.13090014
Al      10.72840467      17.49659534      12.41888857      -0.08380977       0.08380978      -0.00069176
Al      12.77682698      15.44817302      13.21892221       0.07840288      -0.07840288      -0.11482234
Al      11.12722140      19.16398557       9.11662231      -0.03061467       0.04648009      -0.13090014
Al       9.05000000      17.15000000      15.66090798       0.74660790      -0.24747513       1.55273592
Al       9.05000000      19.17500000      18.41759597      -0.03528407       0.03528407      -1.22368344
Al      11.07500000      17.15000000      18.41759597       0.00063877      -0.00063877      -1.16971016
Al      11.07500000      19.17500000      15.66090798       0.24747515      -0.74660783       1.55273583
Al       9.05000000      21.20000000       5.00000000      -0.03478430      -0.31627669      -0.93775334
Al       9.05000000      23.22500000       7.02500000       0.26367319       0.27519776       1.00741188
Al      11.07500000      21.20000000       7.02500000      -0.09526572      -0.13261155       1.30218926
Al      11.07500000      23.22500000       5.00000000      -0.00693544       0.16165537      -0.58643306
Al       9.93610758      20.22907129      11.25871361      -0.10370866       0.10256362      -0.00468019
Al       9.65250197      22.58411229      12.95815693       0.00091859      -0.00931210      -0.04357220
Al      11.59370968      20.54782112      13.39298386       0.06883306       0.09193457      -0.05238792
Al      11.34293630      22.32578726       9.74814367      -0.05315402      -0.02833476       0.00424595
Al       9.05000000      21.20000000      15.66090798       0.06643124       0.29128850       1.18630717
Al       9.05000000      23.22500000      18.41759597      -0.03513698      -0.24204356      -1.16975623
Al      11.07500000      21.20000000      18.41759597      -0.00268015      -0.35701595      -1.24285544
Al      11.07500000      23.22500000      15.66090798       0.20026247      -0.41543834       0.22361344
Al      13.10000000       5.00000000       5.00000000      -0.01001884      -0.16515469      -0.50793837
Al      13.10000000       7.02500000       7.02500000      -0.08510611       0.60319435       1.54658586
Al      15.12500000       5.00000000       7.02500000       0.06330912      -0.21694905       1.64314112
Al      15.12500000       7.02500000       5.00000000       0.00188906       0.32142454      -0.89671482
Al      12.93350301       5.45654505       9.53245357       0.17204408      -0.08806022      -0.05017913
Al      12.67888134       7.61451737      13.36140272      -0.01581612       0.01343842      -0.02220475
Al      14.66076831       6.01710800      12.11422108       0.08976234       0.07689720      -0.01713261
Al      15.29209649       7.19430830       9.27162980       0.03645630       0.14830643       0.09445098
Al      13.10000000       5.00000000      15.66090798      -0.08693673       0.53792191       0.04974937
Al      13.10000000       7.02500000      18.41759597      -0.00396132       0.35775112      -1.24383145
Al      15.12500000       5.00000000      18.41759597       0.00571862       0.25543686      -1.14452708
Al      15.12500000       7.02500000      15.66090798      -0.02783325       0.29261970       0.24593545
Al      13.10000000       9.05000000       5.00000000      -0.01170773      -0.04823306      -1.04486255
Al      13.10000000      11.07500000       7.02500000      -0.12952048      -0.09415350       1.77180506
Al      15.12500000       9.05000000       7.02500000      -0.04940413       0.34123516       1.90093150
Al      15.12500000      11.07500000       5.00000000      -0.00857424      -0.00441793      -1.02610374
Al      13.42438797       8.80971671      10.75371589       0.04297275       0.11630662       0.08915189
Al      13.42270639      10.96675286      13.10203314       0.03313438       0.04990903       0.03899663
Al      15.34447349       8.92740677      13.26853366       0.13034564      -0.02193278      -0.00478891
Al      14.74633881      11.25900649       9.63396979       0.15063794       0.07089456      -0.02258273
Al      13.10000000       9.05000000      15.66090798       0.08931114       0.53344693       1.24031667
Al      13.10000000      11.07500000      18.41759597      -0.00216791      -0.00856664      -1.18046578
Al      15.12500000       9.05000000      18.41759597       0.00273090      -0.04101685      -1.19599306
Al      15.12500000      11.07500000      15.66090798       0.21375074      -0.03168605       0.47666783
Al      13.10000000      13.10000000       5.00000000      -0.00451706      -0.00707249      -0.94997105
Al      13.10000000      15.12500000       7.02500000      -0.37207200       0.37207200       1.40823222
Al      15.12500000      13.10000000       7.02500000      -0.08925333       0.08925334       1.89435706
Al      15.12500000      15.12500000       5.00000000       0.00707249       0.00451706      -0.94997105
Al      12.79262992      13.34267259       9.33175122       0.15159448      -0.01329367       0.10334664
Al      14.54156332      13.68343668      11.82851062       0.13680898      -0.13680898      -0.08840176
Al      14.88232742      15.43237008       9.33175121       0.01329367      -0.15159449       0.10334663
Al      13.10000000      13.10000000      15.66090798      -0.02749701       0.05120015      -0.11207438
Al      13.10000000      15.12500000      18.41759597      -0.00134986       0.00134986      -1.18934768
Al      15.12500000      13.10000000      18.41759597      -0.00096883       0.00096883      -1.16648030
Al      15.12500000      15.12500000      15.66090798      -0.05120015       0.02749701      -0.11207438
Al      13.10000000      17.15000000       5.00000000       0.01364994       0.02390070      -1.02038645
Al      13.10000000      19.17500000       7.02500000       0.14684681       0.13382027       1.42324306
Al      15.12500000      17.15000000       7.02500000       0.11116921      -0.21485441       0.87102214
Al      15.12500000      19.17500000       5.00000000       0.02853947       0.03852421      -0.93345776
Al      12.95423033      17.28767472      10.30136154       0.00802242      -0.24218984      -0.03311900
Al      13.45716794      18.42923452      13.19258346       0.02612536       0.01388848      -0.00755498
Al      15.39877778      16.66404953      12.16799308       0.09957292       0.07180948      -0.09932464
Al      15.07428689      18.92809921       9.17487939       0.02901871      -0.00454296      -0.00519526
Al      13.10000000      17.15000000      15.66090798      -0.18746502      -0.10735683       1.30478208
Al      13.10000000      19.17500000      18.41759597       0.00790163       0.03479215      -1.19337973
Al      15.12500000      17.15000000      18.41759597       0.00004859       0.00553169      -1.16643788
Al      15.12500000      19.17500000      15.66090798       0.22749687      -0.35128891       0.81553117
Al      13.10000000      21.20000000       5.00000000       0.00868569      -0.32613339      -0.96513101
Al      13.10000000      23.22500000       7.02500000      -0.18156686       0.15338508       1.19734869
Al      15.12500000      21.20000000       7.02500000      -0.36777234      -0.40560580       1.11295895
Al      15.12500000      23.22500000       5.00000000       0.01365172       0.14728490      -0.56578721
Al      13.14921214      20.21526842      10.93100208       0.13751548       0.00457386       0.09011530
Al      12.91209907      22.89953933      12.60598042       0.09249759      -0.03730790       0.07248155
Al      14.88356378      20.91486641      13.41190146       0.04066443       0.02845369      -0.02599741
Al      14.26947863      22.49306495       9.67752325       0.21286619      -0.03242722       0.16965883
Al      13.10000000      21.20000000      15.66090798       0.03907759      -0.14846240       1.37056621
Al      13.10000000      23.22500000      18.41759597       0.00387290      -0.24769094      -1.16640750
Al      15.12500000      21.20000000      18.41759597       0.00814552      -0.35699326      -1.24625796
Al      15.12500000      23.22500000      15.66090798      -0.06057464      -0.33521722       0.02890038
Al      17.15000000       5.00000000       5.00000000       0.01603774      -0.16879992      -0.53809501
Al      17.15000000       7.02500000       7.02500000      -0.01877181       0.09074357       0.96336758
Al      19.17500000       5.00000000       7.02500000      -0.12656548      -0.03591802       1.64189139
Al      19.17500000       7.02500000       5.00000000       0.03794322       0.32739205      -0.91865334
Al      17.26523330       5.16016869       9.85056680      -0.06122089       0.01196612      -0.01080189
Al      17.34915631       7.11907884      12.39369467       0.06594590       0.06329212       0.02580297
Al      19.31009890       5.26739690      13.10186013       0.05389359       0.17318100      -0.02473735
Al      18.62594548       7.56363448       9.38808213       0.03599866       0.34475575       0.18873093
Al      17.15000000       5.00000000      15.66090798       0.07629985       0.40447687       0.09508231
Al      17.15000000       7.02500000      18.41759597       0.01408637       0.35351171      -1.21562321
Al      19.17500000       5.00000000      18.41759597       0.03790121       0.24561596      -1.19520302
Al      19.17500000       7.02500000      15.66090798       0.08042114       0.58048118       0.00511010
Al      17.15000000       9.05000000       5.00000000       0.01183807      -0.06560295      -1.04329591
Al      17.15000000      11.07500000       7.02500000       0.07021035      -0.07021035       2.58492856
Al      19.17500000       9.05000000       7.02500000      -0.24365804       0.24365804       0.83874085
Al      19.17500000      11.07500000       5.00000000       0.06560295      -0.01183806      -1.04329591
Al      16.74681982       9.41547384      10.52727547       0.06549498       0.07049704      -0.01909057
Al      16.48533263      11.73966738      12.75011950      -0.02154716       0.02154716       0.08274531
Al      18.50472583       9.72027417      13.25490820       0.07232256      -0.07232256      -0.38757338
Al      18.80952615      11.47818016      10.52727545      -0.07049704      -0.06549499      -0.01909058
Al      17.15000000       9.05000000      15.66090798      -0.17979433      -0.17057946       1.10545497
Al      17.15000000      11.07500000      18.41759597       0.01394446      -0.01394446      -1.17917885
Al      19.17500000       9.05000000      18.41759597       0.03863738      -0.03863738      -1.17573724
Al      19.17500000      11.07500000      15.66090798       0.17057946       0.17979433       1.10545497
Al      17.15000000      13.10000000       5.00000000       0.00441793       0.00857424      -1.02610374
Al      17.15000000      15.12500000       7.02500000       0.09415350       0.12952047       1.77180506
Al      19.17500000      13.10000000       7.02500000      -0.34123516       0.04940413       1.90093150
Al      19.17500000      15.12500000       5.00000000       0.04823306       0.01170774      -1.04486255
Al      16.96599351      13.47866119       9.63396979      -0.07089455      -0.15063794      -0.02258273
Al      17.25824714      14.80229360      13.10203315      -0.04990902      -0.03313438       0.03899663
Al      19.29759323      12.88052651      13.26853365       0.02193278      -0.13034564      -0.00478891
Al      19.41528329      14.80061203      10.75371589      -0.11630661      -0.04297275       0.08915189
Al      17.15000000      13.10000000      15.66090798       0.03168606      -0.21375074       0.47666783
Al      17.15000000      15.12500000      18.41759597       0.00856664       0.00216791      -1.18046578
Al      19.17500000      13.10000000      18.41759597       0.04101685      -0.00273090      -1.19599306
Al      19.17500000      15.12500000      15.66090798      -0.53344693      -0.08931114       1.24031667
Al      17.15000000      17.15000000       5.00000000       0.01627886       0.03154708      -0.97216175
Al      17.15000000      19.17500000       7.02500000      -0.48478870      -0.12515915       0.76805877
Al      19.17500000      17.15000000       7.02500000      -0.30809298      -0.07098824       1.13404440
Al      19.17500000      19.17500000       5.00000000       0.03503587       0.05356930      -0.90976758
Al      17.40129195      16.88543367       9.65769897      -0.00644916      -0.15259029       0.03624315
Al      16.42567151      19.33554311      11.60551890       0.14835143       0.02476335      -0.07821610
Al      18.60941367      17.48198046      12.62285643      -0.04141410       0.11205841       0.00658468
Al      18.79453876      19.36727350       9.17723742      -0.19261341      -0.05175420      -0.06332002
Al      17.15000000      17.15000000      15.66090798       0.05132778       0.04886037      -0.17924728
Al      17.15000000      19.17500000      18.41759597       0.01666467       0.04244811      -1.16703155
Al      19.17500000      17.15000000      18.41759597       0.04528072       0.01574883      -1.18656502
Al      19.17500000      19.17500000      15.66090798      -0.49185178      -0.20758682       1.43187403
Al      17.15000000      21.20000000       5.00000000       0.02239914      -0.34032318      -0.88093772
Al      17.15000000      23.22500000       7.02500000      -0.00389491       0.11938175       1.55712034
Al      19.17500000      21.20000000       7.02500000      -0.04279593       0.09375102       1.46409739
Al      19.17500000      23.22500000       5.00000000       0.04959506       0.12841331      -0.62129858
Al      16.74161082      21.29624912       9.38622860       0.19557693      -0.19124189      -0.08251653
Al      16.72600011      22.70036916      12.35979001      -0.04159438      -0.05442967      -0.11050857
Al      18.44800227      20.51540977      13.18244818       0.11381046      -0.12253212      -0.02856050
Al      19.10555013      22.20387357      10.46318025      -0.11597272      -0.11729561       0.06604924
Al      17.15000000      21.20000000      15.66090798      -0.25343146      -0.19493087       0.79192470
Al      17.15000000      23.22500000      18.41759597       0.01746791      -0.25376658      -1.15168108
Al      19.17500000      21.20000000      18.41759597       0.04313526      -0.35719461      -1.23984792
Al      19.17500000      23.22500000      15.66090798      -0.09159468      -0.51153233       0.12472249
Al      21.20000000       5.00000000       5.00000000      -0.44285188      -0.06785870      -0.49135310
Al      21.20000000       7.02500000       7.02500000      -0.50421472       0.50421472       2.02774559
Al      23.22500000       5.00000000       7.02500000      -0.65597964       0.65597964       1.08759436
Al      23.22500000       7.02500000       5.00000000       0.06785870       0.44285188      -0.49135310
Al      20.56912204       5.57378733       9.85683933      -0.03291927       0.08161981       0.06097899
Al      20.24715958       7.97784042      11.87490439      -0.03259718       0.03259718       0.05170084
Al      22.12850195       6.09649805      12.93276127      -0.22692559       0.22692559      -0.06106377
Al      22.65121268       7.65587796       9.85683934      -0.08161981       0.03291927       0.06097899
Al      21.20000000       5.00000000      15.66090798      -0.53263538       0.30138602       0.66032500
Al      21.20000000       7.02500000      18.41759597      -0.34567473       0.34567474      -1.25900548
Al      23.22500000       5.00000000      18.41759597      -0.88800166       0.88800167      -1.00934786
Al      23.22500000       7.02500000      15.66090798      -0.30138602       0.53263538       0.66032500
Al      21.20000000       9.05000000       5.00000000      -0.32739205      -0.03794322      -0.91865334
Al      21.20000000      11.07500000       7.02500000      -0.09074357       0.01877182       0.96336758
Al      23.22500000       9.05000000       7.02500000       0.03591802       0.12656548       1.64189139
Al      23.22500000      11.07500000       5.00000000       0.16879992      -0.01603774      -0.53809501
Al      20.66136553       9.59905451       9.38808212      -0.34475574      -0.03599866       0.18873093
Al      21.10592116      10.87584369      12.39369465      -0.06329212      -0.06594590       0.02580296
Al      22.95760309       8.91490111      13.10186014      -0.17318100      -0.05389359      -0.02473735
Al      23.06483131      10.95976670       9.85056679      -0.01196612       0.06122089      -0.01080189
Al      21.20000000       9.05000000      15.66090798      -0.58048118      -0.08042114       0.00511011
Al      21.20000000      11.07500000      18.41759597      -0.35351171      -0.01408637      -1.21562321
Al      23.22500000       9.05000000      18.41759597      -0.24561596      -0.03790120      -1.19520302
Al      23.22500000      11.07500000      15.66090798      -0.40447687      -0.07629984       0.09508231
Al      21.20000000      13.10000000       5.00000000      -0.32142454      -0.00188906      -0.89671482
Al      21.20000000      15.12500000       7.02500000      -0.60319435       0.08510611       1.54658586
Al      23.22500000      13.10000000       7.02500000       0.21694905      -0.06330912       1.64314112
Al      23.22500000      15.12500000       5.00000000       0.16515469       0.01001884      -0.50793837
Al      21.03069170      12.93290351       9.27162981      -0.14830643      -0.03645630       0.09445098
Al      20.61048263      15.54611866      13.36140272      -0.01343842       0.01581612      -0.02220474
Al      22.20789200      13.56423169      12.11422108      -0.07689720      -0.08976234      -0.01713261
Al      22.76845495      15.29149699       9.53245358       0.08806022      -0.17204408      -0.05017913
Al      21.20000000      13.10000000      15.66090798      -0.29261970       0.02783325       0.24593545
Al      21.20000000      15.12500000      18.41759597      -0.35775112       0.00396132      -1.24383145
Al      23.22500000      13.10000000      18.41759597      -0.25543686      -0.00571862      -1.14452708
Al      23.22500000      15.12500000      15.66090798      -0.53792191       0.08693673       0.04974937
Al      21.20000000      17.15000000       5.00000000      -0.32720201       0.02496567      -0.90469086
Al      21.20000000      19.17500000       7.02500000      -0.60154376      -0.14056147       1.48520291
Al      23.22500000      17.15000000       7.02500000       0.09743710      -0.22683533       1.09289562
Al      23.22500000      19.17500000       5.00000000       0.16237076       0.04192000      -0.46544581
Al      20.58880459      17.10697409       9.46921810      -0.14828314      -0.12148780       0.01090208
Al      21.08066728      19.02357820      13.67851028      -0.27242061      -0.06526880       0.37033880
Al      22.40702160      17.16020966      11.94885081       0.00739867      -0.01501074      -0.03879604
Al      22.92555061      18.81718186       9.40972147      -0.02206988      -0.03867433       0.13355112
Al      21.20000000      17.15000000      15.66090798      -0.27334221      -0.35755053       1.63772742