299
Lattice="28.224999999999998 0.0 0.0 0.0 28.224999999999998 0.0 0.0 0.0 20.125" Properties=species:S:1:pos:R:3:forces:R:3 energy=-16469.64953598186 pbc="T T T"
Al       5.00000000       5.00000000       5.00000000       0.32607411       0.32655154       0.30624172
Al       5.00000000       7.02500000       7.02500000      -0.46925174       0.27666634       0.50765781
Al       7.02500000       5.00000000       7.02500000       0.27076636      -0.46760116       0.50604413
Al       7.02500000       7.02500000       5.00000000       0.33351315       0.33410079      -0.59834075
Al       5.00162378       5.00309038       9.11275058       0.00793135       0.00797842       0.00839991
Al       4.89939314       7.05752290      11.17833258       0.02204567       0.01497770      -0.02292367
Al       7.05350688       4.89294237      11.17865342       0.01727452       0.01794497      -0.02207213
Al       7.03911871       7.03919832       9.11652768       0.02343430       0.02176202       0.06418409
Al       5.00000000       5.00000000      13.24245875       0.05903535       0.06529473      -0.52930494
Al       5.00000000       7.02500000      15.30816125      -0.06392508       0.45294539      -0.07180419
Al       7.02500000       5.00000000      15.30816125       0.45338711      -0.06418194      -0.07254882
Al       7.02500000       7.02500000      13.24245875       0.18543708       0.18968873      -0.58880697
Al       5.00000000       9.05000000       5.00000000      -0.19667684      -0.03169078      -0.18773122
Al       5.00000000      11.07500000       7.02500000      -0.57460516      -0.01968876       0.40646724
Al       7.02500000       9.05000000       7.02500000       0.12486299      -0.02147188       0.64428220
Al       7.02500000      11.07500000       5.00000000       0.34048219      -0.01858593      -0.64666109
Al       4.84477638       9.04544858       9.07598340       0.00132340      -0.00033470       0.01152701
Al       4.81754842      11.06313207      11.18268866       0.01824908      -0.00311948      -0.03134189
Al       7.00797843       9.06634982      11.15783430       0.02941721       0.01970711      -0.03960098
Al       6.98361895      11.07445148       9.10719228       0.01770917       0.01230118       0.05389226
Al       5.00000000       9.05000000      13.24245875      -0.51290830      -0.00591503      -0.23913509
Al       5.00000000      11.07500000      15.30816125      -0.17198322      -0.02115704       0.02169763
Al       7.02500000       9.05000000      15.30816125       0.32825385      -0.04012020       0.44265137
Al       7.02500000      11.07500000      13.24245875       0.10385000      -0.00624745      -0.51348800
Al       5.00000000      13.10000000       5.00000000      -0.20354737      -0.00669820      -0.19096425
Al       5.00000000      15.12500000       7.02500000      -0.60139862       0.01870082       0.41393455
Al       7.02500000      13.10000000       7.02500000       0.09965838      -0.00879386       0.68680015
Al       7.02500000      15.12500000       5.00000000       0.34046064       0.00824290      -0.64881354
Al       4.81819708      13.09534034       9.08075089       0.00563159      -0.00095557       0.01803665
Al       4.81713074      15.12815077      11.18401321       0.02325764       0.00259176      -0.03677590
Al       6.96524237      13.09271382      11.15248982       0.00983330      -0.00083254      -0.05567726
Al       6.96654153      15.12824401       9.10532859       0.02311899       0.00237495       0.05904538
Al       5.00000000      13.10000000      13.24245875      -0.55746253      -0.01989305      -0.28549802
Al       5.00000000      15.12500000      15.30816125      -0.17574724       0.00752272       0.02385383
Al       7.02500000      13.10000000      15.30816125       0.32759855      -0.00848950       0.44684661
Al       7.02500000      15.12500000      13.24245875       0.03186499       0.00999675      -0.48839888
Al       5.00000000      17.15000000       5.00000000      -0.19974759       0.01832112      -0.18953482
Al       5.00000000      19.17500000       7.02500000      -0.55688326       0.00559453       0.37565632
Al       7.02500000      17.15000000       7.02500000       0.11223700       0.00653811       0.66643248
Al       7.02500000      19.17500000       5.00000000       0.34118448       0.03323458      -0.64605807
Al       4.82109880      17.16158974       9.08268958       0.00403588       0.00288252       0.01286119
Al       4.83322621      19.18289916      11.19080498       0.01913755      -0.00068159      -0.02741889
Al       6.97190056      17.15967438      11.15348939       0.00159994      -0.00884517      -0.04416284
Al       7.00557780      19.16261337       9.10416038       0.02807078      -0.00845480       0.05804049
Al       5.00000000      17.15000000      13.24245875      -0.54744562       0.01940531      -0.26576347
Al       5.00000000      19.17500000      15.30816125      -0.16779431       0.03656302       0.01854147
Al       7.02500000      17.15000000      15.30816125       0.32737294       0.02052930       0.44382361
Al       7.02500000      19.17500000      13.24245875       0.13267730       0.02808975      -0.50746466
Al       5.00000000      21.20000000       5.00000000      -0.09779540      -0.45807574      -0.10051471
Al       5.00000000      23.22500000       7.02500000       0.00998156      -0.00998156       0.63056567
Al       7.02500000      21.20000000       7.02500000       0.19904310      -0.19904310       0.74380540
Al       7.02500000      23.22500000       5.00000000       0.45807574       0.09779540      -0.10051471
Al       4.90291912      21.16840914       9.08949020       0.00171852      -0.00946420       0.01349007
Al       5.00135437      23.22364563      11.15991281       0.02842938      -0.02842938      -0.03901000
Al       7.04534481      21.17965519      11.14739675       0.03662220      -0.03662220      -0.05241835
Al       7.05659086      23.32208088       9.08949020       0.00946420      -0.00171852       0.01349007
Al       5.00000000      21.20000000      13.24245875      -0.41907705      -0.27187012      -0.36275078
Al       5.00000000      23.22500000      15.30816125       0.37475556      -0.37475556      -0.43047013
Al       7.02500000      21.20000000      15.30816125       0.32180137      -0.32180137       0.39330691
Al       7.02500000      23.22500000      13.24245875       0.27187012       0.41907705      -0.36275078
Al       9.05000000       5.00000000       5.00000000      -0.03155821      -0.19715053      -0.18677668
Al       9.05000000       7.02500000       7.02500000      -0.02900424       0.12165738       0.64452180
Al      11.07500000       5.00000000       7.02500000      -0.01966930      -0.58659284       0.40253636
Al      11.07500000       7.02500000       5.00000000      -0.01886554       0.34080468      -0.64475164
Al       9.04227019       4.83847156       9.07554562       0.00347144       0.00072576       0.01096719
Al       9.05527522       6.99715332      11.15703189       0.00544588       0.01204527      -0.03825999
Al      11.06433901       4.82012281      11.18281709      -0.00255290       0.01892986      -0.03156731
Al      11.06755851       6.97539276       9.10599743       0.00789113       0.00735443       0.04732581
Al       9.05000000       5.00000000      13.24245875      -0.00652869      -0.52374341      -0.23398713
Al       9.05000000       7.02500000      15.30816125      -0.03809274       0.32779124       0.44133370
Al      11.07500000       5.00000000      15.30816125      -0.01961640      -0.17038375       0.02077828
Al      11.07500000       7.02500000      13.24245875      -0.00929960       0.06855992      -0.48769227
Al       9.05000000       9.05000000       5.00000000      -0.03412464      -0.03371840      -0.70183404
Al       9.05000000      11.07500000       7.02500000      -0.07286629       0.01347857       0.53719795
Al      11.07500000       9.05000000       7.02500000      -0.01532356      -0.07351003       0.52806711
Al      11.07500000      11.07500000       5.00000000      -0.02107450      -0.02063903      -0.70457758
Al       9.05708499       9.05835340       9.09015468       0.00556469       0.01379883       0.06238972
Al       9.06569899      11.10169042      11.16948137       0.00224760       0.02252056      -0.02957997
Al      11.07016553       9.03170100      11.16804217       0.01155974      -0.00713251      -0.03892666
Al      11.08279359      11.08731332       9.10245352       0.01624987       0.01370236       0.02503537
Al       9.05000000       9.05000000      13.24245875      -0.07444706      -0.05264704      -0.40351263
Al       9.05000000      11.07500000      15.30816125      -0.04108157      -0.02286529       0.50358957
Al      11.07500000       9.05000000      15.30816125      -0.02122571      -0.04342716       0.50156246
Al      11.07500000      11.07500000      13.24245875      -0.01481991       0.01957757      -0.38749304
Al       9.05000000      13.10000000       5.00000000      -0.03691893      -0.00758054      -0.70791493
Al       9.05000000      15.12500000       7.02500000      -0.04142996       0.01002517       0.58747585
Al      11.07500000      13.10000000       7.02500000      -0.00402159       0.02344008       0.50613406
Al      11.07500000      15.12500000       5.00000000      -0.01855840       0.00855528      -0.70801836
Al       9.04384887      13.11013157       9.09953776       0.00395202      -0.00000016       0.05248621
Al       9.00555387      15.12560874      11.17107008       0.00340469       0.00446514      -0.03588711
Al      11.15287841      13.18578620      11.18354080       0.00816647      -0.00849830      -0.02532041
Al      11.10194765      15.12535581       9.12095505       0.03204338       0.00240876      -0.00167110
Al       9.05000000      13.10000000      13.24245875      -0.06093104       0.00799927      -0.42696382
Al       9.05000000      15.12500000      15.30816125      -0.04027091       0.00790122       0.50296318
Al      11.07500000      13.10000000      15.30816125      -0.03019192      -0.01733712       0.52212865
Al      11.07500000      15.12500000      13.24245875       0.27876520       0.01326813      -0.42361881
Al       9.05000000      17.15000000       5.00000000      -0.03672256       0.02081439      -0.70511694
Al       9.05000000      19.17500000       7.02500000      -0.04538985       0.04538985       0.55968289
Al      11.07500000      17.15000000       7.02500000       0.00468385      -0.00468385       0.50056199
Al      11.07500000      19.17500000       5.00000000      -0.02081439       0.03672256      -0.70511694
Al       9.05354582      17.13984604       9.10032243      -0.00548452      -0.01436435       0.04252916
Al       9.07977771      19.14522229      11.17163371       0.01494129      -0.01494129      -0.04493091
Al      11.15851635      17.06648365      11.18277669       0.00822502      -0.00822502      -0.02054163
Al      11.08515396      19.17145418       9.10032243       0.01436435       0.00548452       0.04252916
Al       9.05000000      17.15000000      13.24245875      -0.04876596      -0.00332699      -0.41516034
Al       9.05000000      19.17500000      15.30816125      -0.03956266       0.03956266       0.50312976
Al      11.07500000      17.15000000      15.30816125      -0.03014180       0.03014180       0.52016479
Al      11.07500000      19.17500000      13.24245875       0.00332699       0.04876596      -0.41516034
Al       9.05000000      21.20000000       5.00000000      -0.03323458      -0.34118448      -0.64605807
Al       9.05000000      23.22500000       7.02500000      -0.00559453       0.55688326       0.37565632
Al      11.07500000      21.20000000       7.02500000      -0.00653811      -0.11223700       0.66643248
Al      11.07500000      23.22500000       5.00000000      -0.01832112       0.19974759      -0.18953482
Al       9.06238663      21.21942220       9.10416038       0.00845480      -0.02807078       0.05804049
Al       9.04210084      23.39177379      11.19080498       0.00068159      -0.01913755      -0.02741889
Al      11.06532562      21.25309944      11.15348939       0.00884517      -0.00159994      -0.04416284
Al      11.06341026      23.40390120       9.08268958      -0.00288252      -0.00403588       0.01286119
Al       9.05000000      21.20000000      13.24245875      -0.02808975      -0.13267730      -0.50746466
Al       9.05000000      23.22500000      15.30816125      -0.03656302       0.16779431       0.01854147
Al      11.07500000      21.20000000      15.30816125      -0.02052930      -0.32737294       0.44382361
Al      11.07500000      23.22500000      13.24245875      -0.01940531       0.54744562      -0.26576347
Al      13.10000000       5.00000000       5.00000000      -0.00729602      -0.20426558      -0.19063624
Al      13.10000000       7.02500000       7.02500000      -0.01034369       0.06062830       0.65388211
Al      15.12500000       5.00000000       7.02500000       0.01974997      -0.59730365       0.42120940
Al      15.12500000       7.02500000       5.00000000       0.00742553       0.34072841      -0.64777925
Al      13.09669859       4.82113683       9.08152874      -0.00230055       0.00413216       0.01914352
Al      13.09674023       6.96985325      11.15235673      -0.00156052       0.01582184      -0.04707394
Al      15.12881501       4.81747653      11.18445233       0.00128438       0.02058924      -0.03653457
Al      15.12999053       6.96855390       9.10672528       0.00113335       0.01673729       0.05950631
Al      13.10000000       5.00000000      13.24245875      -0.01814012      -0.55010982      -0.29062927
Al      13.10000000       7.02500000      15.30816125      -0.00799430       0.32695854       0.44582438
Al      15.12500000       5.00000000      15.30816125       0.00771291      -0.17378461       0.02239664
Al      15.12500000       7.02500000      13.24245875       0.01219458       0.05649999      -0.50848304
Al      13.10000000       9.05000000       5.00000000      -0.00798467      -0.03642228      -0.70361454
Al      13.10000000      11.07500000       7.02500000      -0.01445240       0.03258528       0.55025021
Al      15.12500000       9.05000000       7.02500000       0.00931070      -0.08851567       0.53741914
Al      15.12500000      11.07500000       5.00000000       0.00811302      -0.02087131      -0.70649168
Al      13.09912527       9.02363647       9.08787570      -0.00464372       0.00830664       0.04871995
Al      13.10033553      11.04148767      11.16983906      -0.00197806       0.02524904      -0.01842573
Al      15.13012015       9.02218027      11.16827863       0.00452009      -0.00163785      -0.04775662
Al      15.11401980      11.08153421       9.10089706      -0.00104939       0.01920832       0.03463136
Al      13.10000000       9.05000000      13.24245875      -0.00857379      -0.15453867      -0.34584682
Al      13.10000000      11.07500000      15.30816125      -0.00821652      -0.02228159       0.50226055
Al      15.12500000       9.05000000      15.30816125       0.00827493      -0.04352517       0.50440859
Al      15.12500000      11.07500000      13.24245875      -0.00317253       0.00986675      -0.38966749
Al      13.10000000      13.10000000       5.00000000      -0.00834595      -0.00518055      -0.70892014
Al      13.10000000      15.12500000       7.02500000      -0.01535287       0.01535287       0.28204145
Al      15.12500000      13.10000000       7.02500000      -0.02208408       0.02208408       0.50683414
Al      15.12500000      15.12500000       5.00000000       0.00518055       0.00834595      -0.70892014
Al      13.09834080      13.13450711       9.12150634      -0.00019639       0.01991543       0.00098310
Al      15.03954434      13.18545566      11.18432970       0.00621289      -0.00621289      -0.03155552
Al      15.09049289      15.12665920       9.12150634      -0.01991543       0.00019639       0.00098310
Al      13.10000000      13.10000000      13.24245875      -0.02028756       0.29842265      -0.42219532
Al      13.10000000      15.12500000      15.30816125      -0.00808400       0.00808400       0.65340541
Al      15.12500000      13.10000000      15.30816125       0.01718843      -0.01718843       0.52326428
Al      15.12500000      15.12500000      13.24245875      -0.29842265       0.02028756      -0.42219532
Al      13.10000000      17.15000000       5.00000000      -0.00855528       0.01855840      -0.70801836
Al      13.10000000      19.17500000       7.02500000      -0.01002517       0.04142996       0.58747585
Al      15.12500000      17.15000000       7.02500000      -0.02344008       0.00402159       0.50613406
Al      15.12500000      19.17500000       5.00000000       0.00758054       0.03691893      -0.70791493
Al      13.09964419      17.12305235       9.12095505      -0.00240876      -0.03204338      -0.00167110
Al      13.09939126      19.21944613      11.17107008      -0.00446514      -0.00340469      -0.03588711
Al      15.03921380      17.07212159      11.18354080       0.00849830      -0.00816647      -0.02532041
Al      15.11486843      19.18115113       9.09953776       0.00000016      -0.00395202       0.05248621
Al      13.10000000      17.15000000      13.24245875      -0.01326813      -0.27876520      -0.42361881
Al      13.10000000      19.17500000      15.30816125      -0.00790122       0.04027091       0.50296318
Al      15.12500000      17.15000000      15.30816125       0.01733712       0.03019192       0.52212865
Al      15.12500000      19.17500000      13.24245875      -0.00799927       0.06093104      -0.42696382
Al      13.10000000      21.20000000       5.00000000      -0.00824290      -0.34046064      -0.64881354
Al      13.10000000      23.22500000       7.02500000      -0.01870082       0.60139862       0.41393455
Al      15.12500000      21.20000000       7.02500000       0.00879386      -0.09965838       0.68680015
Al      15.12500000      23.22500000       5.00000000       0.00669820       0.20354737      -0.19096425
Al      13.09675599      21.25845847       9.10532859      -0.00237495      -0.02311899       0.05904538
Al      13.09684923      23.40786926      11.18401321      -0.00259176      -0.02325764      -0.03677590
Al      15.13228618      21.25975763      11.15248982       0.00083254      -0.00983330      -0.05567726
Al      15.12965966      23.40680292       9.08075089       0.00095557      -0.00563159       0.01803665
Al      13.10000000      21.20000000      13.24245875      -0.00999675      -0.03186499      -0.48839888
Al      13.10000000      23.22500000      15.30816125      -0.00752272       0.17574724       0.02385383
Al      15.12500000      21.20000000      15.30816125       0.00848950      -0.32759855       0.44684661
Al      15.12500000      23.22500000      13.24245875       0.01989305       0.55746253      -0.28549802
Al      17.15000000       5.00000000       5.00000000       0.01819008      -0.20120668      -0.18922568
Al      17.15000000       7.02500000       7.02500000       0.00780476       0.09025385       0.64670547
Al      19.17500000       5.00000000       7.02500000       0.00623233      -0.56353519       0.37416319
Al      19.17500000       7.02500000       5.00000000       0.03309887       0.34080103      -0.64513535
Al      17.16176127       4.82231610       9.08310434      -0.00010538       0.00108723       0.01414037
Al      17.15790080       6.97541817      11.15320663      -0.00686559       0.00021892      -0.03472599
Al      19.18277850       4.83520778      11.19051419      -0.00408460       0.01791045      -0.02407981
Al      19.16583477       7.00185597       9.10331597      -0.00591443       0.01794332       0.05365760
Al      17.15000000       5.00000000      13.24245875       0.02196739      -0.54106297      -0.26956002
Al      17.15000000       7.02500000      15.30816125       0.02135600       0.32759905       0.44253123
Al      19.17500000       5.00000000      15.30816125       0.03543245      -0.16548644       0.01737588
Al      19.17500000       7.02500000      13.24245875       0.03129204       0.11703453      -0.49373815
Al      17.15000000       9.05000000       5.00000000       0.01995166      -0.03603080      -0.70189862
Al      17.15000000      11.07500000       7.02500000       0.00330965      -0.00330965       0.50464593
Al      19.17500000       9.05000000       7.02500000       0.06580983      -0.06580983       0.53283175
Al      19.17500000      11.07500000       5.00000000       0.03603080      -0.01995166      -0.70189862
Al      17.14607254       9.04401574       9.09168627      -0.01616387       0.00477345       0.04919203
Al      17.12517743      11.09982257      11.16745456      -0.01997883       0.01997883      -0.01353628
Al      19.16411172       9.06088828      11.17002195      -0.01709414       0.01709414      -0.04362213
Al      19.18098426      11.07892746       9.09168627      -0.00477345       0.01616387       0.04919203
Al      17.15000000       9.05000000      13.24245875       0.01561588      -0.07935045      -0.38341832
Al      17.15000000      11.07500000      15.30816125       0.02307815      -0.02307815       0.50366707
Al      19.17500000       9.05000000      15.30816125       0.04080292      -0.04080292       0.50091034
Al      19.17500000      11.07500000      13.24245875       0.07935045      -0.01561588      -0.38341832
Al      17.15000000      13.10000000       5.00000000       0.02087131      -0.00811302      -0.70649168
Al      17.15000000      15.12500000       7.02500000      -0.03258528       0.01445240       0.55025021
Al      19.17500000      13.10000000       7.02500000       0.08851567      -0.00931070       0.53741914
Al      19.17500000      15.12500000       5.00000000       0.03642228       0.00798467      -0.70361454
Al      17.14346579      13.11098020       9.10089706      -0.01920832       0.00104939       0.03463136
Al      17.18351233      15.12466447      11.16983906      -0.02524904       0.00197806      -0.01842573
Al      19.20281973      13.09487985      11.16827863       0.00163785      -0.00452009      -0.04775662
Al      19.20136353      15.12587473       9.08787570      -0.00830664       0.00464372       0.04871995
Al      17.15000000      13.10000000      13.24245875      -0.00986675       0.00317253      -0.38966749
Al      17.15000000      15.12500000      15.30816125       0.02228159       0.00821652       0.50226055
Al      19.17500000      13.10000000      15.30816125       0.04352517      -0.00827493       0.50440859
Al      19.17500000      15.12500000      13.24245875       0.15453867       0.00857379      -0.34584682
Al      17.15000000      17.15000000       5.00000000       0.02063903       0.02107450      -0.70457758
Al      17.15000000      19.17500000       7.02500000      -0.01347857       0.07286629       0.53719795
Al      19.17500000      17.15000000       7.02500000       0.07351003       0.01532356       0.52806711
Al      19.17500000      19.17500000       5.00000000       0.03371840       0.03412464      -0.70183404
Al      17.13768668      17.14220641       9.10245352      -0.01370236      -0.01624987       0.02503537
Al      17.12330958      19.15930101      11.16948137      -0.02252056      -0.00224760      -0.02957997
Al      19.19329900      17.15483447      11.16804217       0.00713251      -0.01155974      -0.03892666
Al      19.16664660      19.16791501       9.09015468      -0.01379883      -0.00556469       0.06238972
Al      17.15000000      17.15000000      13.24245875      -0.01957757       0.01481991      -0.38749304
Al      17.15000000      19.17500000      15.30816125       0.02286529       0.04108157       0.50358957
Al      19.17500000      17.15000000      15.30816125       0.04342716       0.02122571       0.50156246
Al      19.17500000      19.17500000      13.24245875       0.05264704       0.07444706      -0.40351263
Al      17.15000000      21.20000000       5.00000000       0.01858593      -0.34048219      -0.64666109
Al      17.15000000      23.22500000       7.02500000       0.01968876       0.57460516       0.40646724
Al      19.17500000      21.20000000       7.02500000       0.02147188      -0.12486299       0.64428220
Al      19.17500000      23.22500000       5.00000000       0.03169078       0.19667684      -0.18773122
Al      17.15054852      21.24138105       9.10719228      -0.01230118      -0.01770917       0.05389226
Al      17.16186793      23.40745158      11.18268866       0.00311948      -0.01824908      -0.03134189
Al      19.15865018      21.21702157      11.15783430      -0.01970711      -0.02941721      -0.03960098
Al      19.17955142      23.38022362       9.07598340       0.00033470      -0.00132340       0.01152701
Al      17.15000000      21.20000000      13.24245875       0.00624745      -0.10385000      -0.51348800
Al      17.15000000      23.22500000      15.30816125       0.02115704       0.17198322       0.02169763
Al      19.17500000      21.20000000      15.30816125       0.04012020      -0.32825385       0.44265137
Al      19.17500000      23.22500000      13.24245875       0.00591503       0.51290830      -0.23913509
Al      21.20000000       5.00000000       5.00000000      -0.45832256      -0.09934324      -0.09991497
Al      21.20000000       7.02500000       7.02500000      -0.19233630       0.19233630       0.74341328
Al      23.22500000       5.00000000       7.02500000      -0.00719729       0.00719729       0.62791928
Al      23.22500000       7.02500000       5.00000000       0.09934324       0.45832256      -0.09991497
Al      21.17008289       4.89978779       9.08905139      -0.00953715      -0.00110854       0.01363335
Al      21.18540669       7.03959331      11.14624727      -0.02477707       0.02477707      -0.04501481
Al      23.22622240       4.99877760      11.16007039      -0.02497723       0.02497723      -0.03657263
Al      23.32521221       7.05491711       9.08905139       0.00110854       0.00953715       0.01363335
Al      21.20000000       5.00000000      13.24245875      -0.27188428      -0.42261496      -0.36174835
Al      21.20000000       7.02500000      15.30816125      -0.32405462       0.32405462       0.39142275
Al      23.22500000       5.00000000      15.30816125      -0.37516549       0.37516549      -0.43114990
Al      23.22500000       7.02500000      13.24245875       0.42261496       0.27188428      -0.36174835
Al      21.20000000       9.05000000       5.00000000      -0.34080103      -0.03309887      -0.64513535
Al      21.20000000      11.07500000       7.02500000      -0.09025385      -0.00780476       0.64670547
Al      23.22500000       9.05000000       7.02500000       0.56353519      -0.00623233       0.37416319
Al      23.22500000      11.07500000       5.00000000       0.20120668      -0.01819008      -0.18922568
Al      21.22314403       9.05916523       9.10331597      -0.01794332       0.00591443       0.05365760
Al      21.24958183      11.06709920      11.15320663      -0.00021892       0.00686559      -0.03472599
Al      23.38979222       9.04222150      11.19051419      -0.01791045       0.00408460      -0.02407981
Al      23.40268390      11.06323873       9.08310434      -0.00108723       0.00010538       0.01414037
Al      21.20000000       9.05000000      13.24245875      -0.11703453      -0.03129204      -0.49373815
Al      21.20000000      11.07500000      15.30816125      -0.32759905      -0.02135600       0.44253123
Al      23.22500000       9.05000000      15.30816125       0.16548644      -0.03543245       0.01737588
Al      23.22500000      11.07500000      13.24245875       0.54106297      -0.02196739      -0.26956002
Al      21.20000000      13.10000000       5.00000000      -0.34072841      -0.00742553      -0.64777925
Al      21.20000000      15.12500000       7.02500000      -0.06062830       0.01034369       0.65388211
Al      23.22500000      13.10000000       7.02500000       0.59730365      -0.01974997       0.42120940
Al      23.22500000      15.12500000       5.00000000       0.20426558       0.00729602      -0.19063624
Al      21.25644610      13.09500947       9.10672528      -0.01673729      -0.00113335       0.05950631
Al      21.25514675      15.12825977      11.15235673      -0.01582184       0.00156052      -0.04707394
Al      23.40752347      13.09618499      11.18445233      -0.02058924      -0.00128438      -0.03653457
Al      23.40386317      15.12830141       9.08152874      -0.00413216       0.00230055       0.01914352
Al      21.20000000      13.10000000      13.24245875      -0.05649999      -0.01219458      -0.50848304
Al      21.20000000      15.12500000      15.30816125      -0.32695854       0.00799430       0.44582438
Al      23.22500000      13.10000000      15.30816125       0.17378461      -0.00771291       0.02239664
Al      23.22500000      15.12500000      13.24245875       0.55010982       0.01814012      -0.29062927
Al      21.20000000      17.15000000       5.00000000      -0.34080468       0.01886554      -0.64475164
Al      21.20000000      19.17500000       7.02500000      -0.12165738       0.02900424       0.64452180
Al      23.22500000      17.15000000       7.02500000       0.58659284       0.01966930       0.40253636
Al      23.22500000      19.17500000       5.00000000       0.19715053       0.03155821      -0.18677668
Al      21.24960724      17.15744149       9.10599743      -0.00735443      -0.00789113       0.04732581
Al      21.22784668      19.16972478      11.15703189      -0.01204527      -0.00544588      -0.03825999
Al      23.40487719      17.16066099      11.18281709      -0.01892986       0.00255290      -0.03156731
Al      23.38652844      19.18272981       9.07554562      -0.00072576      -0.00347144       0.01096719
Al      21.20000000      17.15000000      13.24245875      -0.06855992       0.00929960      -0.48769227