299
Lattice="28.224999999999998 0.0 0.0 0.0 28.224999999999998 0.0 0.0 0.0 20.125" Properties=species:S:1:pos:R:3 energy=-16468.076251618037 pbc="T T T"
Al       5.00000000       5.00000000       5.00000000
Al       5.00000000       7.02500000       7.02500000
Al       7.02500000       5.00000000       7.02500000
Al       7.02500000       7.02500000       5.00000000
Al       5.03031080       5.03165489       9.19928912
Al       4.93072909       7.07005438      11.33087193
Al       7.06525198       4.92007768      11.33152963
Al       7.05773399       7.05703197       9.20048408
Al       5.00000000       5.00000000      13.46153373
Al       5.00000000       7.02500000      15.58982908
Al       7.02500000       5.00000000      15.58982908
Al       7.02500000       7.02500000      13.46153373
Al       5.00000000       9.05000000       5.00000000
Al       5.00000000      11.07500000       7.02500000
Al       7.02500000       9.05000000       7.02500000
Al       7.02500000      11.07500000       5.00000000
Al       4.86851815       9.04403932       9.15869364
Al       4.84057283      11.06186959      11.32899550
Al       7.02532476       9.07649917      11.31024776
Al       6.99437301      11.07750467       9.19216778
Al       5.00000000       9.05000000      13.46153373
Al       5.00000000      11.07500000      15.58982908
Al       7.02500000       9.05000000      15.58982908
Al       7.02500000      11.07500000      13.46153373
Al       5.00000000      13.10000000       5.00000000
Al       5.00000000      15.12500000       7.02500000
Al       7.02500000      13.10000000       7.02500000
Al       7.02500000      15.12500000       5.00000000
Al       4.83939696      13.09557547       9.16454327
Al       4.84087834      15.12817061      11.32941778
Al       6.97243496      13.09271387      11.30155781
Al       6.97689625      15.12831623       9.19066581
Al       5.00000000      13.10000000      13.46153373
Al       5.00000000      15.12500000      15.58982908
Al       7.02500000      13.10000000      15.58982908
Al       7.02500000      15.12500000      13.46153373
Al       5.00000000      17.15000000       5.00000000
Al       5.00000000      19.17500000       7.02500000
Al       7.02500000      17.15000000       7.02500000
Al       7.02500000      19.17500000       5.00000000
Al       4.84264989      17.16281994       9.16549925
Al       4.85783000      19.18484953      11.33810453
Al       6.97901001      17.15841126      11.30406085
Al       7.02048989      19.15651668       9.18816518
Al       5.00000000      17.15000000      13.46153373
Al       5.00000000      19.17500000      15.58982908
Al       7.02500000      17.15000000      15.58982908
Al       7.02500000      19.17500000      13.46153373
Al       5.00000000      21.20000000       5.00000000
Al       5.00000000      23.22500000       7.02500000
Al       7.02500000      21.20000000       7.02500000
Al       7.02500000      23.22500000       5.00000000
Al       4.92965462      21.15696252       9.16722865
Al       5.03502115      23.18997885      11.30069834
Al       7.06818045      21.15681955      11.29863494
Al       7.06803748      23.29534538       9.16722865
Al       5.00000000      21.20000000      13.46153373
Al       5.00000000      23.22500000      15.58982908
Al       7.02500000      21.20000000      15.58982908
Al       7.02500000      23.22500000      13.46153373
Al       9.05000000       5.00000000       5.00000000
Al       9.05000000       7.02500000       7.02500000
Al      11.07500000       5.00000000       7.02500000
Al      11.07500000       7.02500000       5.00000000
Al       9.04088285       4.86020906       9.15782368
Al       9.05990908       7.00867236      11.30959695
Al      11.06359756       4.84370859      11.32926153
Al      11.06862373       6.98411066       9.18985354
Al       9.05000000       5.00000000      13.46153373
Al       9.05000000       7.02500000      15.58982908
Al      11.07500000       5.00000000      15.58982908
Al      11.07500000       7.02500000      13.46153373
Al       9.05000000       9.05000000       5.00000000
Al       9.05000000      11.07500000       7.02500000
Al      11.07500000       9.05000000       7.02500000
Al      11.07500000      11.07500000       5.00000000
Al       9.06523317       9.06784840       9.17832729
Al       9.07661658      11.11384675      11.32085798
Al      11.07404160       9.03437450      11.31792997
Al      11.08781374      11.09163695       9.18696566
Al       9.05000000       9.05000000      13.46153373
Al       9.05000000      11.07500000      15.58982908
Al      11.07500000       9.05000000      15.58982908
Al      11.07500000      11.07500000      13.46153373
Al       9.05000000      13.10000000       5.00000000
Al       9.05000000      15.12500000       7.02500000
Al      11.07500000      13.10000000       7.02500000
Al      11.07500000      15.12500000       5.00000000
Al       9.04704406      13.11164035       9.18686295
Al       9.00804857      15.12573835      11.32078006
Al      11.16937666      13.20058865      11.33106118
Al      11.10051020      15.12486328       9.19204276
Al       9.05000000      13.10000000      13.46153373
Al       9.05000000      15.12500000      15.58982908
Al      11.07500000      13.10000000      15.58982908
Al      11.07500000      15.12500000      13.46153373
Al       9.05000000      17.15000000       5.00000000
Al       9.05000000      19.17500000       7.02500000
Al      11.07500000      17.15000000       7.02500000
Al      11.07500000      19.17500000       5.00000000
Al       9.05728671      17.13478003       9.18573212
Al       9.09557725      19.12942275      11.32114672
Al      11.17757189      17.04742811      11.33045013
Al      11.09021997      19.16771329       9.18573212
Al       9.05000000      17.15000000      13.46153373
Al       9.05000000      19.17500000      15.58982908
Al      11.07500000      17.15000000      15.58982908
Al      11.07500000      19.17500000      13.46153373
Al       9.05000000      21.20000000       5.00000000
Al       9.05000000      23.22500000       7.02500000
Al      11.07500000      21.20000000       7.02500000
Al      11.07500000      23.22500000       5.00000000
Al       9.06848332      21.20451011       9.18816518
Al       9.04015047      23.36717000      11.33810453
Al      11.06658874      21.24598999      11.30406085
Al      11.06218006      23.38235011       9.16549925
Al       9.05000000      21.20000000      13.46153373
Al       9.05000000      23.22500000      15.58982908
Al      11.07500000      21.20000000      15.58982908
Al      11.07500000      23.22500000      13.46153373
Al      13.10000000       5.00000000       5.00000000
Al      13.10000000       7.02500000       7.02500000
Al      15.12500000       5.00000000       7.02500000
Al      15.12500000       7.02500000       5.00000000
Al      13.09679960       4.84209427       9.16556943
Al      13.09680763       6.97897864      11.30237127
Al      15.12834111       4.84069332      11.33012288
Al      15.12999026       6.97747342       9.19225472
Al      13.10000000       5.00000000      13.46153373
Al      13.10000000       7.02500000      15.58982908
Al      15.12500000       5.00000000      15.58982908
Al      15.12500000       7.02500000      13.46153373
Al      13.10000000       9.05000000       5.00000000
Al      13.10000000      11.07500000       7.02500000
Al      15.12500000       9.05000000       7.02500000
Al      15.12500000      11.07500000       5.00000000
Al      13.09906794       9.02739234       9.17480830
Al      13.10093309      11.04559216      11.32144109
Al      15.13021440       9.02352863      11.31696035
Al      15.11197464      11.08506818       9.18677665
Al      13.10000000       9.05000000      13.46153373
Al      13.10000000      11.07500000      15.58982908
Al      15.12500000       9.05000000      15.58982908
Al      15.12500000      11.07500000      13.46153373
Al      13.10000000      13.10000000       5.00000000
Al      13.10000000      15.12500000       7.02500000
Al      15.12500000      13.10000000       7.02500000
Al      15.12500000      15.12500000       5.00000000
Al      13.09862695      13.13220168       9.19333827
Al      15.02463791      13.20036209      11.33136725
Al      15.09279832      15.12637305       9.19333827
Al      13.10000000      13.10000000      13.46153373
Al      13.10000000      15.12500000      15.58982908
Al      15.12500000      13.10000000      15.58982908
Al      15.12500000      15.12500000      13.46153373
Al      13.10000000      17.15000000       5.00000000
Al      13.10000000      19.17500000       7.02500000
Al      15.12500000      17.15000000       7.02500000
Al      15.12500000      19.17500000       5.00000000
Al      13.10013672      17.12448980       9.19204276
Al      13.09926165      19.21695143      11.32078006
Al      15.02441135      17.05562334      11.33106118
Al      15.11335965      19.17795594       9.18686295
Al      13.10000000      17.15000000      13.46153373
Al      13.10000000      19.17500000      15.58982908
Al      15.12500000      17.15000000      15.58982908
Al      15.12500000      19.17500000      13.46153373
Al      13.10000000      21.20000000       5.00000000
Al      13.10000000      23.22500000       7.02500000
Al      15.12500000      21.20000000       7.02500000
Al      15.12500000      23.22500000       5.00000000
Al      13.09668377      21.24810375       9.19066581
Al      13.09682939      23.38412166      11.32941778
Al      15.13228613      21.25256504      11.30155781
Al      15.12942453      23.38560304       9.16454327
Al      13.10000000      21.20000000      13.46153373
Al      13.10000000      23.22500000      15.58982908
Al      15.12500000      21.20000000      15.58982908
Al      15.12500000      23.22500000      13.46153373
Al      17.15000000       5.00000000       5.00000000
Al      17.15000000       7.02500000       7.02500000
Al      19.17500000       5.00000000       7.02500000
Al      19.17500000       7.02500000       5.00000000
Al      17.16248452       4.84306355       9.16611957
Al      17.15682132       6.98235895      11.30468798
Al      19.18409883       4.85950760      11.33832013
Al      19.16058866       7.01499535       9.18689510
Al      17.15000000       5.00000000      13.46153373
Al      17.15000000       7.02500000      15.58982908
Al      19.17500000       5.00000000      15.58982908
Al      19.17500000       7.02500000      13.46153373
Al      17.15000000       9.05000000       5.00000000
Al      17.15000000      11.07500000       7.02500000
Al      19.17500000       9.05000000       7.02500000
Al      19.17500000      11.07500000       5.00000000
Al      17.14077779       9.04938569       9.17845834
Al      17.11359673      11.11140327      11.32037503
Al      19.15206792       9.07293208      11.31921002
Al      19.17561431      11.08422221       9.17845834
Al      17.15000000       9.05000000      13.46153373
Al      17.15000000      11.07500000      15.58982908
Al      19.17500000       9.05000000      15.58982908
Al      19.17500000      11.07500000      13.46153373
Al      17.15000000      13.10000000       5.00000000
Al      17.15000000      15.12500000       7.02500000
Al      19.17500000      13.10000000       7.02500000
Al      19.17500000      15.12500000       5.00000000
Al      17.13993182      13.11302536       9.18677665
Al      17.17940784      15.12406691      11.32144109
Al      19.20147137      13.09478560      11.31696035
Al      19.19760766      15.12593206       9.17480830
Al      17.15000000      13.10000000      13.46153373
Al      17.15000000      15.12500000      15.58982908
Al      19.17500000      13.10000000      15.58982908
Al      19.17500000      15.12500000      13.46153373
Al      17.15000000      17.15000000       5.00000000
Al      17.15000000      19.17500000       7.02500000
Al      19.17500000      17.15000000       7.02500000
Al      19.17500000      19.17500000       5.00000000
Al      17.13336305      17.13718626       9.18696566
Al      17.11115325      19.14838342      11.32085798
Al      19.19062550      17.15095840      11.31792997
Al      19.15715160      19.15976683       9.17832729
Al      17.15000000      17.15000000      13.46153373
Al      17.15000000      19.17500000      15.58982908
Al      19.17500000      17.15000000      15.58982908
Al      19.17500000      19.17500000      13.46153373
Al      17.15000000      21.20000000       5.00000000
Al      17.15000000      23.22500000       7.02500000
Al      19.17500000      21.20000000       7.02500000
Al      19.17500000      23.22500000       5.00000000
Al      17.14749533      21.23062699       9.19216778
Al      17.16313041      23.38442717      11.32899550
Al      19.14850083      21.19967524      11.31024776
Al      19.18096068      23.35648185       9.15869364
Al      17.15000000      21.20000000      13.46153373
Al      17.15000000      23.22500000      15.58982908
Al      19.17500000      21.20000000      15.58982908
Al      19.17500000      23.22500000      13.46153373
Al      21.20000000       5.00000000       5.00000000
Al      21.20000000       7.02500000       7.02500000
Al      23.22500000       5.00000000       7.02500000
Al      23.22500000       7.02500000       5.00000000
Al      21.15941157       4.92543393       9.16717850
Al      21.16618249       7.05881751      11.29816058
Al      23.19450184       5.03049816      11.30189745
Al      23.29956607       7.06558843       9.16717850
Al      21.20000000       5.00000000      13.46153373
Al      21.20000000       7.02500000      15.58982908
Al      23.22500000       5.00000000      15.58982908
Al      23.22500000       7.02500000      13.46153373
Al      21.20000000       9.05000000       5.00000000
Al      21.20000000      11.07500000       7.02500000
Al      23.22500000       9.05000000       7.02500000
Al      23.22500000      11.07500000       5.00000000
Al      21.21000465       9.06441134       9.18689510
Al      21.24264105      11.06817868      11.30468798
Al      23.36549240       9.04090117      11.33832013
Al      23.38193645      11.06251548       9.16611957
Al      21.20000000       9.05000000      13.46153373
Al      21.20000000      11.07500000      15.58982908
Al      23.22500000       9.05000000      15.58982908
Al      23.22500000      11.07500000      13.46153373
Al      21.20000000      13.10000000       5.00000000
Al      21.20000000      15.12500000       7.02500000
Al      23.22500000      13.10000000       7.02500000
Al      23.22500000      15.12500000       5.00000000
Al      21.24752658      13.09500974       9.19225472
Al      21.24602136      15.12819237      11.30237127
Al      23.38430668      13.09665889      11.33012288
Al      23.38290573      15.12820040       9.16556943
Al      21.20000000      13.10000000      13.46153373
Al      21.20000000      15.12500000      15.58982908
Al      23.22500000      13.10000000      15.58982908
Al      23.22500000      15.12500000      13.46153373
Al      21.20000000      17.15000000       5.00000000
Al      21.20000000      19.17500000       7.02500000
Al      23.22500000      17.15000000       7.02500000
Al      23.22500000      19.17500000       5.00000000
Al      21.24088934      17.15637627       9.18985354
Al      21.21632764      19.16509092      11.30959695
Al      23.38129141      17.16140244      11.32926153
Al      23.36479094      19.18411715       9.15782368
Al      21.20000000      17.15000000      13.46153373
Al      21.20000000      19.17500000      15.58982908
Al      23.22500000      17.15000000      15.58982908
Al      23.22500000      19.17500000      13.46153373
Al      21.20000000      21.20000000       5.00000000
Al      21.20000000      23.22500000       7.02500000
Al      23.22500000      21.20000000       7.02500000
Al      23.22500000      23.22500000       5.00000000
Al      21.16796803      21.16726601       9.20048408
Al      21.15494562      23.29427091      11.33087193
Al      23.30492232      21.15974802      11.33152963
Al      23.19334511      23.19468920       9.19928912
Al      21.20000000      21.20000000      13.46153373
Al      21.20000000      23.22500000      15.58982908
Al      23.22500000      21.20000000      15.58982908
Al      23.22500000      23.22500000      13.46153373
