299
Lattice="28.224999999999998 0.0 0.0 0.0 28.224999999999998 0.0 0.0 0.0 20.125" Properties=species:S:1:pos:R:3 energy=-16419.067243544378 pbc="T T T"
Al       5.00000000       5.00000000       5.00000000
Al       5.00000000       7.02500000       7.02500000
Al       7.02500000       5.00000000       7.02500000
Al       7.02500000       7.02500000       5.00000000
Al       5.60572660       5.60491751       9.65209264
Al       5.30537853       7.30906553      12.21703084
Al       7.33936434       5.21999662      12.19938803
Al       7.57266733       7.45744573       9.65024121
Al       5.00000000       5.00000000      14.74707788
Al       5.00000000       7.02500000      17.24267156
Al       7.02500000       5.00000000      17.24267156
Al       7.02500000       7.02500000      14.74707788
Al       5.00000000       9.05000000       5.00000000
Al       5.00000000      11.07500000       7.02500000
Al       7.02500000       9.05000000       7.02500000
Al       7.02500000      11.07500000       5.00000000
Al       5.15883260       8.99042213       9.54347469
Al       5.08945502      11.09062224      12.13520931
Al       7.26529700       9.28781458      12.15487107
Al       6.99199681      11.21071912       9.56337320
Al       5.00000000       9.05000000      14.74707788
Al       5.00000000      11.07500000      17.24267156
Al       7.02500000       9.05000000      17.24267156
Al       7.02500000      11.07500000      14.74707788
Al       5.00000000      13.10000000       5.00000000
Al       5.00000000      15.12500000       7.02500000
Al       7.02500000      13.10000000       7.02500000
Al       7.02500000      15.12500000       5.00000000
Al       5.02799011      13.26553051       9.58607083
Al       5.13213691      15.25554373      12.18591572
Al       7.08295515      13.18416147      12.17518789
Al       7.34539785      14.94067080       9.59422276
Al       5.00000000      13.10000000      14.74707788
Al       5.00000000      15.12500000      17.24267156
Al       7.02500000      13.10000000      17.24267156
Al       7.02500000      15.12500000      14.74707788
Al       5.00000000      17.15000000       5.00000000
Al       5.00000000      19.17500000       7.02500000
Al       7.02500000      17.15000000       7.02500000
Al       7.02500000      19.17500000       5.00000000
Al       5.28518703      16.98263369       9.55673992
Al       5.43281148      18.90727564      12.11217119
Al       7.46921723      16.91896635      12.11913134
Al       7.13152102      19.14248212       9.50240085
Al       5.00000000      17.15000000      14.74707788
Al       5.00000000      19.17500000      17.24267156
Al       7.02500000      17.15000000      17.24267156
Al       7.02500000      19.17500000      14.74707788
Al       5.00000000      21.20000000       5.00000000
Al       5.00000000      23.22500000       7.02500000
Al       7.02500000      21.20000000       7.02500000
Al       7.02500000      23.22500000       5.00000000
Al       5.12473536      21.02172517       9.45285231
Al       6.68013154      21.54486846      12.13240781
Al       8.67154203      19.55345797      12.15206921
Al       7.20327483      23.10026464       9.45285231
Al       5.00000000      21.20000000      14.74707788
Al       5.00000000      23.22500000      17.24267156
Al       7.02500000      21.20000000      17.24267156
Al       7.02500000      23.22500000      14.74707788
Al       9.05000000       5.00000000       5.00000000
Al       9.05000000       7.02500000       7.02500000
Al      11.07500000       5.00000000       7.02500000
Al      11.07500000       7.02500000       5.00000000
Al       9.05764792       5.03761920       9.52209165
Al       9.20491299       7.28278221      12.24767383
Al      11.03110872       5.13464015      12.13079013
Al      10.87822949       7.27568916       9.59906225
Al       9.05000000       5.00000000      14.74707788
Al       9.05000000       7.02500000      17.24267156
Al      11.07500000       5.00000000      17.24267156
Al      11.07500000       7.02500000      14.74707788
Al       9.05000000       9.05000000       5.00000000
Al       9.05000000      11.07500000       7.02500000
Al      11.07500000       9.05000000       7.02500000
Al      11.07500000      11.07500000       5.00000000
Al       9.22228644       9.56748523       9.63202850
Al       9.15101733      11.31568786      12.24745327
Al      11.11925747       9.30837208      12.17106991
Al      11.51387881      11.00628189       9.59704311
Al       9.05000000       9.05000000      14.74707788
Al       9.05000000      11.07500000      17.24267156
Al      11.07500000       9.05000000      17.24267156
Al      11.07500000      11.07500000      14.74707788
Al       9.05000000      13.10000000       5.00000000
Al       9.05000000      15.12500000       7.02500000
Al      11.07500000      13.10000000       7.02500000
Al      11.07500000      15.12500000       5.00000000
Al       9.32252870      12.87162448       9.58682779
Al       9.41149294      14.87559518      12.14432154
Al      11.46490870      12.92578674      12.14045361
Al      10.98810977      15.20702649       9.50603691
Al       9.05000000      13.10000000      14.74707788
Al       9.05000000      15.12500000      17.24267156
Al      11.07500000      13.10000000      17.24267156
Al      11.07500000      15.12500000      14.74707788
Al       9.05000000      17.15000000       5.00000000
Al       9.05000000      19.17500000       7.02500000
Al      11.07500000      17.15000000       7.02500000
Al      11.07500000      19.17500000       5.00000000
Al       9.04478642      17.18974249       9.48075231
Al      10.67718947      17.54781053      12.10622043
Al      12.66740741      15.55759259      12.11192951
Al      11.03525751      19.18021358       9.48075231
Al       9.05000000      17.15000000      14.74707788
Al       9.05000000      19.17500000      17.24267156
Al      11.07500000      17.15000000      17.24267156
Al      11.07500000      19.17500000      14.74707788
Al       9.05000000      21.20000000       5.00000000
Al       9.05000000      23.22500000       7.02500000
Al      11.07500000      21.20000000       7.02500000
Al      11.07500000      23.22500000       5.00000000
Al       9.08251788      21.09347898       9.50240085
Al       9.31772436      22.79218852      12.11217119
Al      11.30603365      20.75578277      12.11913134
Al      11.24236631      22.93981297       9.55673992
Al       9.05000000      21.20000000      14.74707788
Al       9.05000000      23.22500000      17.24267156
Al      11.07500000      21.20000000      17.24267156
Al      11.07500000      23.22500000      14.74707788
Al      13.10000000       5.00000000       5.00000000
Al      13.10000000       7.02500000       7.02500000
Al      15.12500000       5.00000000       7.02500000
Al      15.12500000       7.02500000       5.00000000
Al      13.01854681       5.34875434       9.60107910
Al      13.01762060       7.23381987      12.21648462
Al      15.13624857       5.28846400      12.13724858
Al      15.38943501       6.99085701       9.54424449
Al      13.10000000       5.00000000      14.74707788
Al      13.10000000       7.02500000      17.24267156
Al      15.12500000       5.00000000      17.24267156
Al      15.12500000       7.02500000      14.74707788
Al      13.10000000       9.05000000       5.00000000
Al      13.10000000      11.07500000       7.02500000
Al      15.12500000       9.05000000       7.02500000
Al      15.12500000      11.07500000       5.00000000
Al      13.29111762       8.84021221       9.58417488
Al      13.44616459      10.92318374      12.18161039
Al      15.37087534       8.89786739      12.14946424
Al      14.95029737      11.21944800       9.50454720
Al      13.10000000       9.05000000      14.74707788
Al      13.10000000      11.07500000      17.24267156
Al      15.12500000       9.05000000      17.24267156
Al      15.12500000      11.07500000      14.74707788
Al      13.10000000      13.10000000       5.00000000
Al      13.10000000      15.12500000       7.02500000
Al      15.12500000      13.10000000       7.02500000
Al      15.12500000      15.12500000       5.00000000
Al      13.01238190      13.28349686       9.48610477
Al      14.66198495      13.56301505      12.09312166
Al      14.94150314      15.21261810       9.48610477
Al      13.10000000      13.10000000      14.74707788
Al      13.10000000      15.12500000      17.24267156
Al      15.12500000      13.10000000      17.24267156
Al      15.12500000      15.12500000      14.74707788
Al      13.10000000      17.15000000       5.00000000
Al      13.10000000      19.17500000       7.02500000
Al      15.12500000      17.15000000       7.02500000
Al      15.12500000      19.17500000       5.00000000
Al      13.01797351      17.23689023       9.50603691
Al      13.34940482      18.81350706      12.14432154
Al      15.29921326      16.76009130      12.14045361
Al      15.35337552      18.90247130       9.58682779
Al      13.10000000      17.15000000      14.74707788
Al      13.10000000      19.17500000      17.24267156
Al      15.12500000      17.15000000      17.24267156
Al      15.12500000      19.17500000      14.74707788
Al      13.10000000      21.20000000       5.00000000
Al      13.10000000      23.22500000       7.02500000
Al      15.12500000      21.20000000       7.02500000
Al      15.12500000      23.22500000       5.00000000
Al      13.28432920      20.87960215       9.59422276
Al      12.96945627      23.09286309      12.18591572
Al      15.04083853      21.14204485      12.17518789
Al      14.95946949      23.19700989       9.58607083
Al      13.10000000      21.20000000      14.74707788
Al      13.10000000      23.22500000      17.24267156
Al      15.12500000      21.20000000      17.24267156
Al      15.12500000      23.22500000      14.74707788
Al      17.15000000       5.00000000       5.00000000
Al      17.15000000       7.02500000       7.02500000
Al      19.17500000       5.00000000       7.02500000
Al      19.17500000       7.02500000       5.00000000
Al      17.36654856       4.95309131       9.61682089
Al      17.42376296       7.03393991      12.17242748
Al      19.37547334       5.02940750      12.21110272
Al      18.94011300       7.29927977       9.49519354
Al      17.15000000       5.00000000      14.74707788
Al      17.15000000       7.02500000      17.24267156
Al      19.17500000       5.00000000      17.24267156
Al      19.17500000       7.02500000      14.74707788
Al      17.15000000       9.05000000       5.00000000
Al      17.15000000      11.07500000       7.02500000
Al      19.17500000       9.05000000       7.02500000
Al      19.17500000      11.07500000       5.00000000
Al      16.96960310       9.27479434       9.50689613
Al      16.63676225      11.58823775      12.08382493
Al      18.58113962       9.64386038      12.08426614
Al      18.95020566      11.25539690       9.50689613
Al      17.15000000       9.05000000      14.74707788
Al      17.15000000      11.07500000      17.24267156
Al      19.17500000       9.05000000      17.24267156
Al      19.17500000      11.07500000      14.74707788
Al      17.15000000      13.10000000       5.00000000
Al      17.15000000      15.12500000       7.02500000
Al      19.17500000      13.10000000       7.02500000
Al      19.17500000      15.12500000       5.00000000
Al      17.00555200      13.27470263       9.50454720
Al      17.30181626      14.77883541      12.18161039
Al      19.32713261      12.85412466      12.14946424
Al      19.38478779      14.93388238       9.58417488
Al      17.15000000      13.10000000      14.74707788
Al      17.15000000      15.12500000      17.24267156
Al      19.17500000      13.10000000      17.24267156
Al      19.17500000      15.12500000      14.74707788
Al      17.15000000      17.15000000       5.00000000
Al      17.15000000      19.17500000       7.02500000
Al      19.17500000      17.15000000       7.02500000
Al      19.17500000      19.17500000       5.00000000
Al      17.21871811      16.71112119       9.59704311
Al      16.90931214      19.07398267      12.24745327
Al      18.91662792      17.10574253      12.17106991
Al      18.65751477      19.00271356       9.63202850
Al      17.15000000      17.15000000      14.74707788
Al      17.15000000      19.17500000      17.24267156
Al      19.17500000      17.15000000      17.24267156
Al      19.17500000      19.17500000      14.74707788
Al      17.15000000      21.20000000       5.00000000
Al      17.15000000      23.22500000       7.02500000
Al      19.17500000      21.20000000       7.02500000
Al      19.17500000      23.22500000       5.00000000
Al      17.01428088      21.23300319       9.56337320
Al      17.13437776      23.13554498      12.13520931
Al      18.93718542      20.95970300      12.15487107
Al      19.23457787      23.06616740       9.54347469
Al      17.15000000      21.20000000      14.74707788
Al      17.15000000      23.22500000      17.24267156
Al      19.17500000      21.20000000      17.24267156
Al      19.17500000      23.22500000      14.74707788
Al      21.20000000       5.00000000       5.00000000
Al      21.20000000       7.02500000       7.02500000
Al      23.22500000       5.00000000       7.02500000
Al      23.22500000       7.02500000       5.00000000
Al      20.88178400       5.28409680       9.49384963
Al      20.53099802       7.69400198      12.06602396
Al      22.46106627       5.76393373      12.08432357
Al      22.94090320       7.34321600       9.49384963
Al      21.20000000       5.00000000      14.74707788
Al      21.20000000       7.02500000      17.24267156
Al      23.22500000       5.00000000      17.24267156
Al      23.22500000       7.02500000      14.74707788
Al      21.20000000       9.05000000       5.00000000
Al      21.20000000      11.07500000       7.02500000
Al      23.22500000       9.05000000       7.02500000
Al      23.22500000      11.07500000       5.00000000
Al      20.92572023       9.28488700       9.49519354
Al      21.19106009      10.80123704      12.17242748
Al      23.19559250       8.84952666      12.21110272
Al      23.27190869      10.85845144       9.61682089
Al      21.20000000       9.05000000      14.74707788
Al      21.20000000      11.07500000      17.24267156
Al      23.22500000       9.05000000      17.24267156
Al      23.22500000      11.07500000      14.74707788
Al      21.20000000      13.10000000       5.00000000
Al      21.20000000      15.12500000       7.02500000
Al      23.22500000      13.10000000       7.02500000
Al      23.22500000      15.12500000       5.00000000
Al      21.23414299      12.83556499       9.54424449
Al      20.99118013      15.20737940      12.21648462
Al      22.93653600      13.08875143      12.13724858
Al      22.87624566      15.20645319       9.60107910
Al      21.20000000      13.10000000      14.74707788
Al      21.20000000      15.12500000      17.24267156
Al      23.22500000      13.10000000      17.24267156
Al      23.22500000      15.12500000      14.74707788
Al      21.20000000      17.15000000       5.00000000
Al      21.20000000      19.17500000       7.02500000
Al      23.22500000      17.15000000       7.02500000
Al      23.22500000      19.17500000       5.00000000
Al      20.94931084      17.34677051       9.59906225
Al      20.94221779      19.02008701      12.24767383
Al      23.09035985      17.19389128      12.13079013
Al      23.18738080      19.16735208       9.52209165
Al      21.20000000      17.15000000      14.74707788
Al      21.20000000      19.17500000      17.24267156
Al      23.22500000      17.15000000      17.24267156
Al      23.22500000      19.17500000      14.74707788
Al      21.20000000      21.20000000       5.00000000
Al      21.20000000      23.22500000       7.02500000
Al      23.22500000      21.20000000       7.02500000
Al      23.22500000      23.22500000       5.00000000
Al      20.76755427      20.65233267       9.65024121
Al      20.91593447      22.91962147      12.21703084
Al      23.00500338      20.88563566      12.19938803
Al      22.62008249      22.61927340       9.65209264
Al      21.20000000      21.20000000      14.74707788
Al      21.20000000      23.22500000      17.24267156
Al      23.22500000      21.20000000      17.24267156
Al      23.22500000      23.22500000      14.74707788
