299
Lattice="28.224999999999998 0.0 0.0 0.0 28.224999999999998 0.0 0.0 0.0 20.125" Properties=species:S:1:pos:R:3 energy=-16454.33305819271 pbc="T T T"
Al       5.00000000       5.00000000       5.00000000
Al       5.00000000       7.02500000       7.02500000
Al       7.02500000       5.00000000       7.02500000
Al       7.02500000       7.02500000       5.00000000
Al       5.23105641       5.23653676       9.39801607
Al       5.10893631       7.17491502      11.69318258
Al       7.14623287       5.04296278      11.70063016
Al       7.19864209       7.19359447       9.34247049
Al       5.00000000       5.00000000      13.99887240
Al       5.00000000       7.02500000      16.28069309
Al       7.02500000       5.00000000      16.28069309
Al       7.02500000       7.02500000      13.99887240
Al       5.00000000       9.05000000       5.00000000
Al       5.00000000      11.07500000       7.02500000
Al       7.02500000       9.05000000       7.02500000
Al       7.02500000      11.07500000       5.00000000
Al       5.00007173       9.05255145       9.31567229
Al       4.96697859      11.05044189      11.66581376
Al       7.15823524       9.16952756      11.67306003
Al       7.06834476      11.08053376       9.32938282
Al       5.00000000       9.05000000      13.99887240
Al       5.00000000      11.07500000      16.28069309
Al       7.02500000       9.05000000      16.28069309
Al       7.02500000      11.07500000      13.99887240
Al       5.00000000      13.10000000       5.00000000
Al       5.00000000      15.12500000       7.02500000
Al       7.02500000      13.10000000       7.02500000
Al       7.02500000      15.12500000       5.00000000
Al       4.98369169      13.09311467       9.32992923
Al       4.99466171      15.13088724      11.66565852
Al       7.03951822      13.07562542      11.66614578
Al       7.04647065      15.13647711       9.32958807
Al       5.00000000      13.10000000      13.99887240
Al       5.00000000      15.12500000      16.28069309
Al       7.02500000      13.10000000      16.28069309
Al       7.02500000      15.12500000      13.99887240
Al       5.00000000      17.15000000       5.00000000
Al       5.00000000      19.17500000       7.02500000
Al       7.02500000      17.15000000       7.02500000
Al       7.02500000      19.17500000       5.00000000
Al       4.97425388      17.17220582       9.33145254
Al       4.97606860      19.19659306      11.67858156
Al       7.04132817      17.18204509      11.66902073
Al       7.11900262      19.10277665       9.31874658
Al       5.00000000      17.15000000      13.99887240
Al       5.00000000      19.17500000      16.28069309
Al       7.02500000      17.15000000      16.28069309
Al       7.02500000      19.17500000      13.99887240
Al       5.00000000      21.20000000       5.00000000
Al       5.00000000      23.22500000       7.02500000
Al       7.02500000      21.20000000       7.02500000
Al       7.02500000      23.22500000       5.00000000
Al       5.07496941      21.06413811       9.29054187
Al       5.27930584      22.94569416      11.59634942
Al       7.25732627      20.96767373      11.65062116
Al       7.16086189      23.15003059       9.29054187
Al       5.00000000      21.20000000      13.99887240
Al       5.00000000      23.22500000      16.28069309
Al       7.02500000      21.20000000      16.28069309
Al       7.02500000      23.22500000      13.99887240
Al       9.05000000       5.00000000       5.00000000
Al       9.05000000       7.02500000       7.02500000
Al      11.07500000       5.00000000       7.02500000
Al      11.07500000       7.02500000       5.00000000
Al       9.03941275       4.97846906       9.31706828
Al       9.08968498       7.09163573      11.67847418
Al      11.05679887       4.98305754      11.66543675
Al      11.05300834       7.05120004       9.32833026
Al       9.05000000       5.00000000      13.99887240
Al       9.05000000       7.02500000      16.28069309
Al      11.07500000       5.00000000      16.28069309
Al      11.07500000       7.02500000      13.99887240
Al       9.05000000       9.05000000       5.00000000
Al       9.05000000      11.07500000       7.02500000
Al      11.07500000       9.05000000       7.02500000
Al      11.07500000      11.07500000       5.00000000
Al       9.14454364       9.15061587       9.32698849
Al       9.19550470      11.20905133      11.67616729
Al      11.08204394       9.06735260      11.67876389
Al      11.12859773      11.12817907       9.33944509
Al       9.05000000       9.05000000      13.99887240
Al       9.05000000      11.07500000      16.28069309
Al      11.07500000       9.05000000      16.28069309
Al      11.07500000      11.07500000      13.99887240
Al       9.05000000      13.10000000       5.00000000
Al       9.05000000      15.12500000       7.02500000
Al      11.07500000      13.10000000       7.02500000
Al      11.07500000      15.12500000       5.00000000
Al       9.07210909      13.11663066       9.33459957
Al       9.02756360      15.13166717      11.67313295
Al      11.31546650      13.34100374      11.65133072
Al      11.09372455      15.11519487       9.26475187
Al       9.05000000      13.10000000      13.99887240
Al       9.05000000      15.12500000      16.28069309
Al      11.07500000      13.10000000      16.28069309
Al      11.07500000      15.12500000      13.99887240
Al       9.05000000      17.15000000       5.00000000
Al       9.05000000      19.17500000       7.02500000
Al      11.07500000      17.15000000       7.02500000
Al      11.07500000      19.17500000       5.00000000
Al       9.10296695      17.10800219       9.32789963
Al       9.25708667      18.96791333      11.67022811
Al      11.35660878      16.86839122      11.64491301
Al      11.11699781      19.12203305       9.32789963
Al       9.05000000      17.15000000      13.99887240
Al       9.05000000      19.17500000      16.28069309
Al      11.07500000      17.15000000      16.28069309
Al      11.07500000      19.17500000      13.99887240
Al       9.05000000      21.20000000       5.00000000
Al       9.05000000      23.22500000       7.02500000
Al      11.07500000      21.20000000       7.02500000
Al      11.07500000      23.22500000       5.00000000
Al       9.12222335      21.10599738       9.31874658
Al       9.02840694      23.24893140      11.67858156
Al      11.04295491      21.18367183      11.66902073
Al      11.05279418      23.25074612       9.33145254
Al       9.05000000      21.20000000      13.99887240
Al       9.05000000      23.22500000      16.28069309
Al      11.07500000      21.20000000      16.28069309
Al      11.07500000      23.22500000      13.99887240
Al      13.10000000       5.00000000       5.00000000
Al      13.10000000       7.02500000       7.02500000
Al      15.12500000       5.00000000       7.02500000
Al      15.12500000       7.02500000       5.00000000
Al      13.09381502       4.99218207       9.33055810
Al      13.08939049       7.05454565      11.66513976
Al      15.12953263       4.99379792      11.66610172
Al      15.14097095       7.04851740       9.33063980
Al      13.10000000       5.00000000      13.99887240
Al      13.10000000       7.02500000      16.28069309
Al      15.12500000       5.00000000      16.28069309
Al      15.12500000       7.02500000      13.99887240
Al      13.10000000       9.05000000       5.00000000
Al      13.10000000      11.07500000       7.02500000
Al      15.12500000       9.05000000       7.02500000
Al      15.12500000      11.07500000       5.00000000
Al      13.09529672       9.04457809       9.32335682
Al      13.11347748      11.05269958      11.67396601
Al      15.14532308       9.03519858      11.67472059
Al      15.09376113      11.10177414       9.33627018
Al      13.10000000       9.05000000      13.99887240
Al      13.10000000      11.07500000      16.28069309
Al      15.12500000       9.05000000      16.28069309
Al      15.12500000      11.07500000      13.99887240
Al      13.10000000      13.10000000       5.00000000
Al      13.10000000      15.12500000       7.02500000
Al      15.12500000      13.10000000       7.02500000
Al      15.12500000      15.12500000       5.00000000
Al      13.10650043      13.12443396       9.27169921
Al      14.87237226      13.35262774      11.65197445
Al      15.10056604      15.11849957       9.27169921
Al      13.10000000      13.10000000      13.99887240
Al      13.10000000      15.12500000      16.28069309
Al      15.12500000      13.10000000      16.28069309
Al      15.12500000      15.12500000      13.99887240
Al      13.10000000      17.15000000       5.00000000
Al      13.10000000      19.17500000       7.02500000
Al      15.12500000      17.15000000       7.02500000
Al      15.12500000      19.17500000       5.00000000
Al      13.10980513      17.13127545       9.26475187
Al      13.09333283      19.19743640      11.67313295
Al      14.88399626      16.90953350      11.65133072
Al      15.10836934      19.15289091       9.33459957
Al      13.10000000      17.15000000      13.99887240
Al      13.10000000      19.17500000      16.28069309
Al      15.12500000      17.15000000      16.28069309
Al      15.12500000      19.17500000      13.99887240
Al      13.10000000      21.20000000       5.00000000
Al      13.10000000      23.22500000       7.02500000
Al      15.12500000      21.20000000       7.02500000
Al      15.12500000      23.22500000       5.00000000
Al      13.08852289      21.17852935       9.32958807
Al      13.09411276      23.23033829      11.66565852
Al      15.14937458      21.18548178      11.66614578
Al      15.13188533      23.24130831       9.32992923
Al      13.10000000      21.20000000      13.99887240
Al      13.10000000      23.22500000      16.28069309
Al      15.12500000      21.20000000      16.28069309
Al      15.12500000      23.22500000      13.99887240
Al      17.15000000       5.00000000       5.00000000
Al      17.15000000       7.02500000       7.02500000
Al      19.17500000       5.00000000       7.02500000
Al      19.17500000       7.02500000       5.00000000
Al      17.17102494       4.97341624       9.33113247
Al      17.17707838       7.04267342      11.66877189
Al      19.19225202       4.97837490      11.67847845
Al      19.10945058       7.11192265       9.31902599
Al      17.15000000       5.00000000      13.99887240
Al      17.15000000       7.02500000      16.28069309
Al      19.17500000       5.00000000      16.28069309
Al      19.17500000       7.02500000      13.99887240
Al      17.15000000       9.05000000       5.00000000
Al      17.15000000      11.07500000       7.02500000
Al      19.17500000       9.05000000       7.02500000
Al      19.17500000      11.07500000       5.00000000
Al      17.11285194       9.10012270       9.32392992
Al      16.99926007      11.22573993      11.67227837
Al      19.03113597       9.19386403      11.67201551
Al      19.12487730      11.11214806       9.32392992
Al      17.15000000       9.05000000      13.99887240
Al      17.15000000      11.07500000      16.28069309
Al      19.17500000       9.05000000      16.28069309
Al      19.17500000      11.07500000      13.99887240
Al      17.15000000      13.10000000       5.00000000
Al      17.15000000      15.12500000       7.02500000
Al      19.17500000      13.10000000       7.02500000
Al      19.17500000      15.12500000       5.00000000
Al      17.12322586      13.13123887       9.33627018
Al      17.17230042      15.11152252      11.67396601
Al      19.18980142      13.07967692      11.67472059
Al      19.18042191      15.12970328       9.32335682
Al      17.15000000      13.10000000      13.99887240
Al      17.15000000      15.12500000      16.28069309
Al      19.17500000      13.10000000      16.28069309
Al      19.17500000      15.12500000      13.99887240
Al      17.15000000      17.15000000       5.00000000
Al      17.15000000      19.17500000       7.02500000
Al      19.17500000      17.15000000       7.02500000
Al      19.17500000      19.17500000       5.00000000
Al      17.09682093      17.09640227       9.33944509
Al      17.01594867      19.02949530      11.67616729
Al      19.15764740      17.14295606      11.67876389
Al      19.07438413      19.08045636       9.32698849
Al      17.15000000      17.15000000      13.99887240
Al      17.15000000      19.17500000      16.28069309
Al      19.17500000      17.15000000      16.28069309
Al      19.17500000      19.17500000      13.99887240
Al      17.15000000      21.20000000       5.00000000
Al      17.15000000      23.22500000       7.02500000
Al      19.17500000      21.20000000       7.02500000
Al      19.17500000      23.22500000       5.00000000
Al      17.14446624      21.15665524       9.32938282
Al      17.17455811      23.25802141      11.66581376
Al      19.05547244      21.06676476      11.67306003
Al      19.17244855      23.22492827       9.31567229
Al      17.15000000      21.20000000      13.99887240
Al      17.15000000      23.22500000      16.28069309
Al      19.17500000      21.20000000      16.28069309
Al      19.17500000      23.22500000      13.99887240
Al      21.20000000       5.00000000       5.00000000
Al      21.20000000       7.02500000       7.02500000
Al      23.22500000       5.00000000       7.02500000
Al      23.22500000       7.02500000       5.00000000
Al      21.07088869       5.06803835       9.29323939
Al      21.00315365       7.22184635      11.65318539
Al      22.97018302       5.25481698      11.59903624
Al      23.15696165       7.15411131       9.29323939
Al      21.20000000       5.00000000      13.99887240
Al      21.20000000       7.02500000      16.28069309
Al      23.22500000       5.00000000      16.28069309
Al      23.22500000       7.02500000      13.99887240
Al      21.20000000       9.05000000       5.00000000
Al      21.20000000      11.07500000       7.02500000
Al      23.22500000       9.05000000       7.02500000
Al      23.22500000      11.07500000       5.00000000
Al      21.11307735       9.11554942       9.31902599
Al      21.18232658      11.04792162      11.66877189
Al      23.24662510       9.03274798      11.67847845
Al      23.25158376      11.05397506       9.33113247
Al      21.20000000       9.05000000      13.99887240
Al      21.20000000      11.07500000      16.28069309
Al      23.22500000       9.05000000      16.28069309
Al      23.22500000      11.07500000      13.99887240
Al      21.20000000      13.10000000       5.00000000
Al      21.20000000      15.12500000       7.02500000
Al      23.22500000      13.10000000       7.02500000
Al      23.22500000      15.12500000       5.00000000
Al      21.17648260      13.08402905       9.33063980
Al      21.17045435      15.13560951      11.66513976
Al      23.23120208      13.09546737      11.66610172
Al      23.23281793      15.13118498       9.33055810
Al      21.20000000      13.10000000      13.99887240
Al      21.20000000      15.12500000      16.28069309
Al      23.22500000      13.10000000      16.28069309
Al      23.22500000      15.12500000      13.99887240
Al      21.20000000      17.15000000       5.00000000
Al      21.20000000      19.17500000       7.02500000
Al      23.22500000      17.15000000       7.02500000
Al      23.22500000      19.17500000       5.00000000
Al      21.17379996      17.17199166       9.32833026
Al      21.13336427      19.13531502      11.67847418
Al      23.24194246      17.16820113      11.66543675
Al      23.24653094      19.18558725       9.31706828
Al      21.20000000      17.15000000      13.99887240
Al      21.20000000      19.17500000      16.28069309
Al      23.22500000      17.15000000      16.28069309
Al      23.22500000      19.17500000      13.99887240
Al      21.20000000      21.20000000       5.00000000
Al      21.20000000      23.22500000       7.02500000
Al      23.22500000      21.20000000       7.02500000
Al      23.22500000      23.22500000       5.00000000
Al      21.03140553      21.02635791       9.34247049
Al      21.05008498      23.11606369      11.69318258
Al      23.18203722      21.07876713      11.70063016
Al      22.98846324      22.99394359       9.39801607
Al      21.20000000      21.20000000      13.99887240
Al      21.20000000      23.22500000      16.28069309
Al      23.22500000      21.20000000      16.28069309
Al      23.22500000      23.22500000      13.99887240
