299
Lattice="28.224999999999998 0.0 0.0 0.0 28.224999999999998 0.0 0.0 0.0 20.125" Properties=species:S:1:pos:R:3 energy=-16424.04040364546 pbc="T T T"
Al       5.00000000       5.00000000       5.00000000
Al       5.00000000       7.02500000       7.02500000
Al       7.02500000       5.00000000       7.02500000
Al       7.02500000       7.02500000       5.00000000
Al       5.50755698       5.50241882       9.61760696
Al       5.23742632       7.25841737      12.15398259
Al       7.28552247       5.18683485      12.14043003
Al       7.45907141       7.39650803       9.58269968
Al       5.00000000       5.00000000      14.66059691
Al       5.00000000       7.02500000      17.13148174
Al       7.02500000       5.00000000      17.13148174
Al       7.02500000       7.02500000      14.66059691
Al       5.00000000       9.05000000       5.00000000
Al       5.00000000      11.07500000       7.02500000
Al       7.02500000       9.05000000       7.02500000
Al       7.02500000      11.07500000       5.00000000
Al       5.10771063       9.00854083       9.52333199
Al       5.06462086      11.08643152      12.08629988
Al       7.21182415       9.23657282      12.10771058
Al       7.02219051      11.15109266       9.52575214
Al       5.00000000       9.05000000      14.66059691
Al       5.00000000      11.07500000      17.13148174
Al       7.02500000       9.05000000      17.13148174
Al       7.02500000      11.07500000      14.66059691
Al       5.00000000      13.10000000       5.00000000
Al       5.00000000      15.12500000       7.02500000
Al       7.02500000      13.10000000       7.02500000
Al       7.02500000      15.12500000       5.00000000
Al       5.03928070      13.19730674       9.54090235
Al       5.12001213      15.19964057      12.10703001
Al       7.09195922      13.13769534      12.10844945
Al       7.26879329      14.99088005       9.54519644
Al       5.00000000      13.10000000      14.66059691
Al       5.00000000      15.12500000      17.13148174
Al       7.02500000      13.10000000      17.13148174
Al       7.02500000      15.12500000      14.66059691
Al       5.00000000      17.15000000       5.00000000
Al       5.00000000      19.17500000       7.02500000
Al       7.02500000      17.15000000       7.02500000
Al       7.02500000      19.17500000       5.00000000
Al       5.22471595      17.02674203       9.51019359
Al       5.33256533      18.93188298      12.05604799
Al       7.37923316      16.96620506      12.07703842
Al       7.12964187      19.13820309       9.48848779
Al       5.00000000      17.15000000      14.66059691
Al       5.00000000      19.17500000      17.13148174
Al       7.02500000      17.15000000      17.13148174
Al       7.02500000      19.17500000      14.66059691
Al       5.00000000      21.20000000       5.00000000
Al       5.00000000      23.22500000       7.02500000
Al       7.02500000      21.20000000       7.02500000
Al       7.02500000      23.22500000       5.00000000
Al       5.11196008      21.02533038       9.42485046
Al       6.77614129      21.44885871      12.06609646
Al       8.75363765      19.47136235      12.10742893
Al       7.19966962      23.11303992       9.42485046
Al       5.00000000      21.20000000      14.66059691
Al       5.00000000      23.22500000      17.13148174
Al       7.02500000      21.20000000      17.13148174
Al       7.02500000      23.22500000      14.66059691
Al       9.05000000       5.00000000       5.00000000
Al       9.05000000       7.02500000       7.02500000
Al      11.07500000       5.00000000       7.02500000
Al      11.07500000       7.02500000       5.00000000
Al       9.04276920       5.04076926       9.50496933
Al       9.16344648       7.24372416      12.14749969
Al      11.03267084       5.12389633      12.08819116
Al      10.93179394       7.20673763       9.54127982
Al       9.05000000       5.00000000      14.66059691
Al       9.05000000       7.02500000      17.13148174
Al      11.07500000       5.00000000      17.13148174
Al      11.07500000       7.02500000      14.66059691
Al       9.05000000       9.05000000       5.00000000
Al       9.05000000      11.07500000       7.02500000
Al      11.07500000       9.05000000       7.02500000
Al      11.07500000      11.07500000       5.00000000
Al       9.21678244       9.44072402       9.56752240
Al       9.14803207      11.23422730      12.14756272
Al      11.12656408       9.22244386      12.10910527
Al      11.40810923      11.05278146       9.55328446
Al       9.05000000       9.05000000      14.66059691
Al       9.05000000      11.07500000      17.13148174
Al      11.07500000       9.05000000      17.13148174
Al      11.07500000      11.07500000      14.66059691
Al       9.05000000      13.10000000       5.00000000
Al       9.05000000      15.12500000       7.02500000
Al      11.07500000      13.10000000       7.02500000
Al      11.07500000      15.12500000       5.00000000
Al       9.24354929      12.93143657       9.53920647
Al       9.32375951      14.93039065      12.09773854
Al      11.37020399      12.97121235      12.09097484
Al      11.00871051      15.18551572       9.48836326
Al       9.05000000      13.10000000      14.66059691
Al       9.05000000      15.12500000      17.13148174
Al      11.07500000      13.10000000      17.13148174
Al      11.07500000      15.12500000      14.66059691
Al       9.05000000      17.15000000       5.00000000
Al       9.05000000      19.17500000       7.02500000
Al      11.07500000      17.15000000       7.02500000
Al      11.07500000      19.17500000       5.00000000
Al       9.05444417      17.17472327       9.47640943
Al      10.74660413      17.47839587      12.06695044
Al      12.73019972      15.49480028      12.05653199
Al      11.05027673      19.17055583       9.47640943
Al       9.05000000      17.15000000      14.66059691
Al       9.05000000      19.17500000      17.13148174
Al      11.07500000      17.15000000      17.13148174
Al      11.07500000      19.17500000      14.66059691
Al       9.05000000      21.20000000       5.00000000
Al       9.05000000      23.22500000       7.02500000
Al      11.07500000      21.20000000       7.02500000
Al      11.07500000      23.22500000       5.00000000
Al       9.08679691      21.09535813       9.48848779
Al       9.29311702      22.89243467      12.05604799
Al      11.25879494      20.84576684      12.07703842
Al      11.19825797      23.00028405       9.51019359
Al       9.05000000      21.20000000      14.66059691
Al       9.05000000      23.22500000      17.13148174
Al      11.07500000      21.20000000      17.13148174
Al      11.07500000      23.22500000      14.66059691
Al      13.10000000       5.00000000       5.00000000
Al      13.10000000       7.02500000       7.02500000
Al      15.12500000       5.00000000       7.02500000
Al      15.12500000       7.02500000       5.00000000
Al      13.04332130       5.24804710       9.55884156
Al      13.06223230       7.17795450      12.13420786
Al      15.15163703       5.20335971      12.08538347
Al      15.31341473       7.01696463       9.52522753
Al      13.10000000       5.00000000      14.66059691
Al      13.10000000       7.02500000      17.13148174
Al      15.12500000       5.00000000      17.13148174
Al      15.12500000       7.02500000      14.66059691
Al      13.10000000       9.05000000       5.00000000
Al      13.10000000      11.07500000       7.02500000
Al      15.12500000       9.05000000       7.02500000
Al      15.12500000      11.07500000       5.00000000
Al      13.23146569       8.90373385       9.53960766
Al      13.36047384      10.96471777      12.11459677
Al      15.31597265       8.94534493      12.10284366
Al      14.97875915      11.19660823       9.49007041
Al      13.10000000       9.05000000      14.66059691
Al      13.10000000      11.07500000      17.13148174
Al      15.12500000       9.05000000      17.13148174
Al      15.12500000      11.07500000      14.66059691
Al      13.10000000      13.10000000       5.00000000
Al      13.10000000      15.12500000       7.02500000
Al      15.12500000      13.10000000       7.02500000
Al      15.12500000      15.12500000       5.00000000
Al      13.03719538      13.25210845       9.47793031
Al      14.71800092      13.50699908      12.05912941
Al      14.97289155      15.18780462       9.47793031
Al      13.10000000      13.10000000      14.66059691
Al      13.10000000      15.12500000      17.13148174
Al      15.12500000      13.10000000      17.13148174
Al      15.12500000      15.12500000      14.66059691
Al      13.10000000      17.15000000       5.00000000
Al      13.10000000      19.17500000       7.02500000
Al      15.12500000      17.15000000       7.02500000
Al      15.12500000      19.17500000       5.00000000
Al      13.03948428      17.21628949       9.48836326
Al      13.29460935      18.90124049      12.09773854
Al      15.25378765      16.85479601      12.09097484
Al      15.29356343      18.98145071       9.53920647
Al      13.10000000      17.15000000      14.66059691
Al      13.10000000      19.17500000      17.13148174
Al      15.12500000      17.15000000      17.13148174
Al      15.12500000      19.17500000      14.66059691
Al      13.10000000      21.20000000       5.00000000
Al      13.10000000      23.22500000       7.02500000
Al      15.12500000      21.20000000       7.02500000
Al      15.12500000      23.22500000       5.00000000
Al      13.23411995      20.95620671       9.54519644
Al      13.02535943      23.10498787      12.10703001
Al      15.08730466      21.13304078      12.10844945
Al      15.02769326      23.18571930       9.54090235
Al      13.10000000      21.20000000      14.66059691
Al      13.10000000      23.22500000      17.13148174
Al      15.12500000      21.20000000      17.13148174
Al      15.12500000      23.22500000      14.66059691
Al      17.15000000       5.00000000       5.00000000
Al      17.15000000       7.02500000       7.02500000
Al      19.17500000       5.00000000       7.02500000
Al      19.17500000       7.02500000       5.00000000
Al      17.30994659       4.97559490       9.56783719
Al      17.36090234       7.04464154      12.11314143
Al      19.32920044       5.02700567      12.14547728
Al      18.97599212       7.26415473       9.48115018
Al      17.15000000       5.00000000      14.66059691
Al      17.15000000       7.02500000      17.13148174
Al      19.17500000       5.00000000      17.13148174
Al      19.17500000       7.02500000      14.66059691
Al      17.15000000       9.05000000       5.00000000
Al      17.15000000      11.07500000       7.02500000
Al      19.17500000       9.05000000       7.02500000
Al      19.17500000      11.07500000       5.00000000
Al      16.99806504       9.23987815       9.49131778
Al      16.69650445      11.52849555      12.04492402
Al      18.65267960       9.57232040      12.04843403
Al      18.98512185      11.22693496       9.49131778
Al      17.15000000       9.05000000      14.66059691
Al      17.15000000      11.07500000      17.13148174
Al      19.17500000       9.05000000      17.13148174
Al      19.17500000      11.07500000      14.66059691
Al      17.15000000      13.10000000       5.00000000
Al      17.15000000      15.12500000       7.02500000
Al      19.17500000      13.10000000       7.02500000
Al      19.17500000      15.12500000       5.00000000
Al      17.02839177      13.24624085       9.49007041
Al      17.26028223      14.86452616      12.11459677
Al      19.27965507      12.90902735      12.10284366
Al      19.32126615      14.99353431       9.53960766
Al      17.15000000      13.10000000      14.66059691
Al      17.15000000      15.12500000      17.13148174
Al      19.17500000      13.10000000      17.13148174
Al      19.17500000      15.12500000      14.66059691
Al      17.15000000      17.15000000       5.00000000
Al      17.15000000      19.17500000       7.02500000
Al      19.17500000      17.15000000       7.02500000
Al      19.17500000      19.17500000       5.00000000
Al      17.17221854      16.81689077       9.55328446
Al      16.99077270      19.07696793      12.14756272
Al      19.00255614      17.09843592      12.10910527
Al      18.78427598      19.00821756       9.56752240
Al      17.15000000      17.15000000      14.66059691
Al      17.15000000      19.17500000      17.13148174
Al      19.17500000      17.15000000      17.13148174
Al      19.17500000      19.17500000      14.66059691
Al      17.15000000      21.20000000       5.00000000
Al      17.15000000      23.22500000       7.02500000
Al      19.17500000      21.20000000       7.02500000
Al      19.17500000      23.22500000       5.00000000
Al      17.07390734      21.20280949       9.52575214
Al      17.13856848      23.16037914      12.08629988
Al      18.98842718      21.01317585      12.10771058
Al      19.21645917      23.11728937       9.52333199
Al      17.15000000      21.20000000      14.66059691
Al      17.15000000      23.22500000      17.13148174
Al      19.17500000      21.20000000      17.13148174
Al      19.17500000      23.22500000      14.66059691
Al      21.20000000       5.00000000       5.00000000
Al      21.20000000       7.02500000       7.02500000
Al      23.22500000       5.00000000       7.02500000
Al      23.22500000       7.02500000       5.00000000
Al      20.91857688       5.23915082       9.47306563
Al      20.60172322       7.62327678      12.02753433
Al      22.53122967       5.69377033      12.01697226
Al      22.98584918       7.30642312       9.47306563
Al      21.20000000       5.00000000      14.66059691
Al      21.20000000       7.02500000      17.13148174
Al      23.22500000       5.00000000      17.13148174
Al      23.22500000       7.02500000      14.66059691
Al      21.20000000       9.05000000       5.00000000
Al      21.20000000      11.07500000       7.02500000
Al      23.22500000       9.05000000       7.02500000
Al      23.22500000      11.07500000       5.00000000
Al      20.96084527       9.24900788       9.48115018
Al      21.18035846      10.86409766      12.11314143
Al      23.19799433       8.89579956      12.14547728
Al      23.24940510      10.91505341       9.56783719
Al      21.20000000       9.05000000      14.66059691
Al      21.20000000      11.07500000      17.13148174
Al      23.22500000       9.05000000      17.13148174
Al      23.22500000      11.07500000      14.66059691
Al      21.20000000      13.10000000       5.00000000
Al      21.20000000      15.12500000       7.02500000
Al      23.22500000      13.10000000       7.02500000
Al      23.22500000      15.12500000       5.00000000
Al      21.20803537      12.91158527       9.52522753
Al      21.04704550      15.16276770      12.13420786
Al      23.02164029      13.07336297      12.08538347
Al      22.97695290      15.18167870       9.55884156
Al      21.20000000      13.10000000      14.66059691
Al      21.20000000      15.12500000      17.13148174
Al      23.22500000      13.10000000      17.13148174
Al      23.22500000      15.12500000      14.66059691
Al      21.20000000      17.15000000       5.00000000
Al      21.20000000      19.17500000       7.02500000
Al      23.22500000      17.15000000       7.02500000
Al      23.22500000      19.17500000       5.00000000
Al      21.01826237      17.29320606       9.54127982
Al      20.98127584      19.06155352      12.14749969
Al      23.10110367      17.19232916      12.08819116
Al      23.18423074      19.18223080       9.50496933
Al      21.20000000      17.15000000      14.66059691
Al      21.20000000      19.17500000      17.13148174
Al      23.22500000      17.15000000      17.13148174
Al      23.22500000      19.17500000      14.66059691
Al      21.20000000      21.20000000       5.00000000
Al      21.20000000      23.22500000       7.02500000
Al      23.22500000      21.20000000       7.02500000
Al      23.22500000      23.22500000       5.00000000
Al      20.82849197      20.76592859       9.58269968
Al      20.96658263      22.98757368      12.15398259
Al      23.03816515      20.93947753      12.14043003
Al      22.72258118      22.71744302       9.61760696
Al      21.20000000      21.20000000      14.66059691
Al      21.20000000      23.22500000      17.13148174
Al      23.22500000      21.20000000      17.13148174
Al      23.22500000      23.22500000      14.66059691
