299
Lattice="28.224999999999998 0.0 0.0 0.0 28.224999999999998 0.0 0.0 0.0 20.125" Properties=species:S:1:pos:R:3:forces:R:3 energy=-16467.106298538034 pbc="T T T"
Al       5.00000000       5.00000000       5.00000000       0.32977899       0.32987217       0.25488755
Al       5.00000000       7.02500000       7.02500000      -0.34505903       0.35318863       0.76082393
Al       7.02500000       5.00000000       7.02500000       0.34480698      -0.34450347       0.75633730
Al       7.02500000       7.02500000       5.00000000       0.33213481       0.33233329      -0.62432768
Al       5.07796612       5.07983281       9.22191025       0.00456619       0.00700714       0.01403067
Al       4.96805250       7.08762574      11.37995773       0.00225267       0.01830499      -0.00930049
Al       7.08026723       4.95137139      11.38117761       0.01432497      -0.00309127      -0.00875620
Al       7.08351021       7.08223734       9.20551655       0.03471027       0.03444270      -0.00177478
Al       5.00000000       5.00000000      13.53602407       0.30834032       0.32012873      -0.51345965
Al       5.00000000       7.02500000      15.68560237       0.04873322       0.46451099      -0.33805007
Al       7.02500000       5.00000000      15.68560237       0.46450323       0.04810753      -0.33940784
Al       7.02500000       7.02500000      13.53602407       0.28649416       0.29179953      -0.37779681
Al       5.00000000       9.05000000       5.00000000      -0.19553478      -0.02840950      -0.22900998
Al       5.00000000      11.07500000       7.02500000      -0.46381344      -0.01078373       0.75710987
Al       7.02500000       9.05000000       7.02500000       0.22637112       0.02292691       0.93455098
Al       7.02500000      11.07500000       5.00000000       0.34176251      -0.00786400      -0.67538662
Al       4.90200179       9.04483024       9.17395690       0.00060592       0.01015688       0.00317867
Al       4.87247001      11.05941080      11.37110184       0.00357679       0.00563676      -0.01641506
Al       7.04825932       9.08874016      11.35984780       0.03885918       0.02747886      -0.00563365
Al       7.01032469      11.07780081       9.19964390       0.03021132       0.00931448      -0.00456243
Al       5.00000000       9.05000000      13.53602407      -0.29509464       0.03940560      -0.20513495
Al       5.00000000      11.07500000      15.68560237      -0.05640134      -0.01177764      -0.24436824
Al       7.02500000       9.05000000      15.68560237       0.33974547      -0.03179442       0.08143275
Al       7.02500000      11.07500000      13.53602407       0.21382101       0.02509206      -0.38236145
Al       5.00000000      13.10000000       5.00000000      -0.19779437      -0.00215866      -0.22768138
Al       5.00000000      15.12500000       7.02500000      -0.48568793       0.01524374       0.77003658
Al       7.02500000      13.10000000       7.02500000       0.19580828       0.00277488       1.00568567
Al       7.02500000      15.12500000       5.00000000       0.34319739       0.00310907      -0.67350967
Al       4.87320376      13.09461181       9.18052283       0.00606367       0.00347803       0.00357313
Al       4.87490495      15.12903934      11.37176702       0.00777301      -0.00258354      -0.01720605
Al       6.98598818      13.09044936      11.35118298       0.03356154       0.00224526      -0.00530925
Al       6.99081508      15.12901624       9.19758467       0.03288800      -0.00325551      -0.00525660
Al       5.00000000      13.10000000      13.53602407      -0.34568067      -0.01406299      -0.30019404
Al       5.00000000      15.12500000      15.68560237      -0.05598914       0.00296393      -0.24489529
Al       7.02500000      13.10000000      15.68560237       0.34383244      -0.00231435       0.07915410
Al       7.02500000      15.12500000      13.53602407       0.14635779       0.00177613      -0.37282909
Al       5.00000000      17.15000000       5.00000000      -0.19725479       0.01128046      -0.22814505
Al       5.00000000      19.17500000       7.02500000      -0.43895623      -0.04026573       0.67099811
Al       7.02500000      17.15000000       7.02500000       0.20440697      -0.01578104       0.97587064
Al       7.02500000      19.17500000       5.00000000       0.33963187       0.02925169      -0.67425531
Al       4.87540491      17.16505267       9.18223014       0.00241881      -0.00756613       0.00370394
Al       4.88836439      19.18655405      11.38147250       0.00005063      -0.00910837      -0.01444333
Al       6.99277490      17.16140707      11.35346265       0.02962748      -0.00671389      -0.00393826
Al       7.03981009      19.14797078       9.19450577       0.03262602      -0.02154128      -0.00457754
Al       5.00000000      17.15000000      13.53602407      -0.34068754       0.01154413      -0.27825802
Al       5.00000000      19.17500000      15.68560237      -0.05473732       0.03079350      -0.24517889
Al       7.02500000      17.15000000      15.68560237       0.34332162       0.00830080       0.07978399
Al       7.02500000      19.17500000      13.53602407       0.24554670      -0.02258061      -0.34956556
Al       5.00000000      21.20000000       5.00000000      -0.09596436      -0.45835318      -0.13866071
Al       5.00000000      23.22500000       7.02500000       0.14292130      -0.14292130       0.83889017
Al       7.02500000      21.20000000       7.02500000       0.29425408      -0.29425408       0.96666664
Al       7.02500000      23.22500000       5.00000000       0.45835318       0.09596436      -0.13866071
Al       4.96383654      21.13961722       9.17482431      -0.00233112      -0.01718672      -0.00465048
Al       5.08699083      23.13800917      11.33468117       0.01230170      -0.01230170      -0.02471192
Al       7.09758368      21.12741632      11.34932691       0.04238578      -0.04238578      -0.00783758
Al       7.08538278      23.26116346       9.17482431       0.01718672       0.00233112      -0.00465048
Al       5.00000000      21.20000000      13.53602407      -0.19221267      -0.35583215      -0.28303612
Al       5.00000000      23.22500000      15.68560237       0.49738432      -0.49738432      -0.58265406
Al       7.02500000      21.20000000      15.68560237       0.33271244      -0.33271244       0.03276373
Al       7.02500000      23.22500000      13.53602407       0.35583215       0.19221267      -0.28303612
Al       9.05000000       5.00000000       5.00000000      -0.02874766      -0.19613764      -0.22805725
Al       9.05000000       7.02500000       7.02500000       0.01178519       0.22204058       0.93181223
Al      11.07500000       5.00000000       7.02500000      -0.01170359      -0.47685115       0.74946553
Al      11.07500000       7.02500000       5.00000000      -0.00838144       0.34169805      -0.67459589
Al       9.04025091       4.89149048       9.17303728       0.00985746      -0.00025312       0.00237316
Al       9.06573125       7.02648018      11.35935894       0.01936630       0.03166157      -0.00605628
Al      11.06150133       4.87705163      11.37109485       0.00731914       0.00625020      -0.01644027
Al      11.06697624       6.99964989       9.19716733       0.00739674       0.02904537      -0.00420710
Al       9.05000000       5.00000000      13.53602407       0.03766101      -0.31254932      -0.19406535
Al       9.05000000       7.02500000      15.68560237      -0.03161963       0.33961266       0.08035978
Al      11.07500000       5.00000000      15.68560237      -0.01197365      -0.05626198      -0.24428049
Al      11.07500000       7.02500000      13.53602407       0.01109704       0.17491270      -0.35771394
Al       9.05000000       9.05000000       5.00000000      -0.02730899      -0.02671813      -0.73269713
Al       9.05000000      11.07500000       7.02500000      -0.01667375       0.04367509       0.89974653
Al      11.07500000       9.05000000       7.02500000       0.01352565      -0.02018106       0.89053192
Al      11.07500000      11.07500000       5.00000000      -0.00625648      -0.00459572      -0.72885327
Al       9.07682577       9.07965554       9.18708889       0.02659745       0.02725102       0.00093315
Al       9.09386770      11.12680429      11.36657209       0.03853181       0.02828215      -0.00362705
Al      11.07541913       9.04003769      11.36451834       0.01348088       0.02434124      -0.00464772
Al      11.09284906      11.09609300       9.19940199       0.01819428       0.02158646       0.00168895
Al       9.05000000       9.05000000      13.53602407      -0.01034309       0.01174743      -0.28916517
Al       9.05000000      11.07500000      15.68560237      -0.02898041      -0.00825978       0.13685980
Al      11.07500000       9.05000000      15.68560237      -0.00870420      -0.02885169       0.13458238
Al      11.07500000      11.07500000      13.53602407       0.03204746       0.07122238      -0.33630498
Al       9.05000000      13.10000000       5.00000000      -0.02424091       0.00000049      -0.73067056
Al       9.05000000      15.12500000       7.02500000      -0.03590256      -0.00358085       0.90777954
Al      11.07500000      13.10000000       7.02500000      -0.01697060      -0.00037030       0.84114109
Al      11.07500000      15.12500000       5.00000000      -0.00325099       0.00229915      -0.72117504
Al       9.05097751      13.11220764       9.19673406       0.02646362       0.00559365       0.00166029
Al       9.01007989      15.12534350      11.36594048       0.02489283      -0.00495024      -0.00711378
Al      11.19451173      13.22464482      11.36948838       0.02378087       0.01526527      -0.01794835
Al      11.09639578      15.12257672       9.18862258       0.01426329      -0.00667858      -0.01333299
Al       9.05000000      13.10000000      13.53602407       0.01785130       0.04186782      -0.35655561
Al       9.05000000      15.12500000      15.68560237      -0.02712461       0.00235727       0.13225408
Al      11.07500000      13.10000000      15.68560237      -0.01155929      -0.00571878       0.14233725
Al      11.07500000      15.12500000      13.53602407       0.16806568      -0.00044534      -0.19551670
Al       9.05000000      17.15000000       5.00000000      -0.02507826       0.00759139      -0.73066912
Al       9.05000000      19.17500000       7.02500000       0.01114923      -0.01114923       0.88984617
Al      11.07500000      17.15000000       7.02500000      -0.00559324       0.00559324       0.83507162
Al      11.07500000      19.17500000       5.00000000      -0.00759139       0.02507826      -0.73066912
Al       9.06428986      17.13136111       9.19647432       0.02696127      -0.01505078      -0.00226953
Al       9.11628841      19.10871159      11.36834993       0.04283991      -0.04283991      -0.00581349
Al      11.20480471      17.02019529      11.36845779       0.02866948      -0.02866948      -0.01518331
Al      11.09363889      19.16071014       9.19647432       0.01505078      -0.02696127      -0.00226953
Al       9.05000000      17.15000000      13.53602407       0.03049779      -0.05161786      -0.33632239
Al       9.05000000      19.17500000      15.68560237      -0.02870167       0.02870167       0.13874729
Al      11.07500000      17.15000000      15.68560237      -0.01162104       0.01162104       0.14329093
Al      11.07500000      19.17500000      13.53602407       0.05161786      -0.03049779      -0.33632239
Al       9.05000000      21.20000000       5.00000000      -0.02925169      -0.33963187      -0.67425531
Al       9.05000000      23.22500000       7.02500000       0.04026573       0.43895623       0.67099811
Al      11.07500000      21.20000000       7.02500000       0.01578104      -0.20440697       0.97587064
Al      11.07500000      23.22500000       5.00000000      -0.01128046       0.19725479      -0.22814505
Al       9.07702922      21.18518991       9.19450577       0.02154128      -0.03262602      -0.00457754
Al       9.03844595      23.33663561      11.38147250       0.00910837      -0.00005063      -0.01444333
Al      11.06359293      21.23222510      11.35346265       0.00671389      -0.02962748      -0.00393826
Al      11.05994733      23.34959509       9.18223014       0.00756613      -0.00241881       0.00370394
Al       9.05000000      21.20000000      13.53602407       0.02258061      -0.24554670      -0.34956556
Al       9.05000000      23.22500000      15.68560237      -0.03079350       0.05473732      -0.24517889
Al      11.07500000      21.20000000      15.68560237      -0.00830080      -0.34332162       0.07978399
Al      11.07500000      23.22500000      13.53602407      -0.01154413       0.34068754      -0.27825802
Al      13.10000000       5.00000000       5.00000000      -0.00270076      -0.19810714      -0.22840229
Al      13.10000000       7.02500000       7.02500000      -0.00172907       0.16384612       0.97943823
Al      15.12500000       5.00000000       7.02500000       0.01506690      -0.48280949       0.77179675
Al      15.12500000       7.02500000       5.00000000       0.00261922       0.34232820      -0.67406350
Al      13.09596509       4.87662763       9.18137676       0.00298180       0.00794669       0.00447139
Al      13.09596107       6.99400601      11.35083578       0.00320656       0.03394194      -0.00759785
Al      15.12917186       4.87529989      11.37233379      -0.00273709       0.00922162      -0.01700717
Al      15.13122350       6.99275586       9.19887833      -0.00256524       0.03346662      -0.00309500
Al      13.10000000       5.00000000      13.53602407      -0.01409036      -0.33828169      -0.30559400
Al      13.10000000       7.02500000      15.68560237      -0.00310131       0.34299010       0.07995248
Al      15.12500000       5.00000000      15.68560237       0.00310801      -0.05658360      -0.24483528
Al      15.12500000       7.02500000      13.53602407       0.00294384       0.16557851      -0.38611929
Al      13.10000000       9.05000000       5.00000000      -0.00184309      -0.02533591      -0.72998670
Al      13.10000000      11.07500000       7.02500000      -0.00081269       0.00912577       0.89283736
Al      15.12500000       9.05000000       7.02500000      -0.00580526      -0.03359370       0.90712146
Al      15.12500000      11.07500000       5.00000000       0.00044827      -0.00436891      -0.72753250
Al      13.09970486       9.03119066       9.18421793       0.00542898       0.02225147       0.00066698
Al      13.10323355      11.04524719      11.36466220       0.00698569       0.01566733      -0.00960215
Al      15.13134280       9.02643174      11.36352519      -0.00349820       0.02301048      -0.00862283
Al      15.10989381      11.08752577       9.19791718      -0.00680513       0.01852429       0.00510995
Al      13.10000000       9.05000000      13.53602407       0.00411569      -0.08715000      -0.27510209
Al      13.10000000      11.07500000      15.68560237      -0.00263065      -0.00595508       0.12870109
Al      15.12500000       9.05000000      15.68560237       0.00160885      -0.02832121       0.13439555
Al      15.12500000      11.07500000      13.53602407      -0.03656163       0.05917223      -0.33918610
Al      13.10000000      13.10000000       5.00000000      -0.00164886       0.00298956      -0.71979676
Al      13.10000000      15.12500000       7.02500000      -0.00553211       0.00553211       0.64347970
Al      15.12500000      13.10000000       7.02500000       0.00379530      -0.00379530       0.84186232
Al      15.12500000      15.12500000       5.00000000      -0.00298956       0.00164886      -0.71979676
Al      13.10073477      13.12665948       9.19004296       0.00651975       0.00606271      -0.00898684
Al      14.99998600      13.22501400      11.36987897      -0.01543152       0.01543152      -0.02269473
Al      15.09834052      15.12426523       9.19004296      -0.00606271      -0.00651975      -0.00898684
Al      13.10000000      13.10000000      13.53602407      -0.01018673       0.18167817      -0.20120248
Al      13.10000000      15.12500000      15.68560237      -0.00234010       0.00234010       0.23625133
Al      15.12500000      13.10000000      15.68560237       0.00535930      -0.00535930       0.14085579
Al      15.12500000      15.12500000      13.53602407      -0.18167817       0.01018673      -0.20120248
Al      13.10000000      17.15000000       5.00000000      -0.00229915       0.00325099      -0.72117504
Al      13.10000000      19.17500000       7.02500000       0.00358085       0.03590256       0.90777954
Al      15.12500000      17.15000000       7.02500000       0.00037030       0.01697060       0.84114109
Al      15.12500000      19.17500000       5.00000000      -0.00000049       0.02424091      -0.73067056
Al      13.10242328      17.12860422       9.18862258       0.00667858      -0.01426329      -0.01333299
Al      13.09965650      19.21492011      11.36594048       0.00495024      -0.02489283      -0.00711378
Al      15.00035518      17.03048827      11.36948838      -0.01526527      -0.02378087      -0.01794835
Al      15.11279236      19.17402249       9.19673406      -0.00559365      -0.02646362       0.00166029
Al      13.10000000      17.15000000      13.53602407       0.00044534      -0.16806568      -0.19551670
Al      13.10000000      19.17500000      15.68560237      -0.00235727       0.02712461       0.13225408
Al      15.12500000      17.15000000      15.68560237       0.00571878       0.01155929       0.14233725
Al      15.12500000      19.17500000      13.53602407      -0.04186782      -0.01785130      -0.35655561
Al      13.10000000      21.20000000       5.00000000      -0.00310907      -0.34319739      -0.67350967
Al      13.10000000      23.22500000       7.02500000      -0.01524374       0.48568793       0.77003658
Al      15.12500000      21.20000000       7.02500000      -0.00277488      -0.19580828       1.00568567
Al      15.12500000      23.22500000       5.00000000       0.00215866       0.19779437      -0.22768138
Al      13.09598376      21.23418492       9.19758467       0.00325551      -0.03288800      -0.00525660
Al      13.09596066      23.35009505      11.37176702       0.00258354      -0.00777301      -0.01720605
Al      15.13455064      21.23901182      11.35118298      -0.00224526      -0.03356154      -0.00530925
Al      15.13038819      23.35179624       9.18052283      -0.00347803      -0.00606367       0.00357313
Al      13.10000000      21.20000000      13.53602407      -0.00177613      -0.14635779      -0.37282909
Al      13.10000000      23.22500000      15.68560237      -0.00296393       0.05598914      -0.24489529
Al      15.12500000      21.20000000      15.68560237       0.00231435      -0.34383244       0.07915410
Al      15.12500000      23.22500000      13.53602407       0.01406299       0.34568067      -0.30019404
Al      17.15000000       5.00000000       5.00000000       0.01170317      -0.19796810      -0.22879412
Al      17.15000000       7.02500000       7.02500000      -0.01239446       0.18910669       0.96246481
Al      19.17500000       5.00000000       7.02500000      -0.03714322      -0.44526044       0.67003584
Al      19.17500000       7.02500000       5.00000000       0.02999128       0.33861599      -0.67414566
Al      17.16456307       4.87608243       9.18269760      -0.00621454       0.00408873       0.00431103
Al      17.15887255       6.99737351      11.35324673      -0.00510268       0.02859021      -0.00662504
Al      19.18530244       4.89084947      11.38124115      -0.00826396       0.00288733      -0.01480142
Al      19.15182045       7.03503169       9.19295099      -0.01945894       0.03235879      -0.00187289
Al      17.15000000       5.00000000      13.53602407       0.01240195      -0.33711605      -0.27973322
Al      17.15000000       7.02500000      15.68560237       0.00915770       0.34172868       0.08064761
Al      19.17500000       5.00000000      15.68560237       0.03147296      -0.05454429      -0.24533099
Al      19.17500000       7.02500000      13.53602407      -0.01215106       0.22639805      -0.33987503
Al      17.15000000       9.05000000       5.00000000       0.00845715      -0.02700317      -0.73141416
Al      17.15000000      11.07500000       7.02500000      -0.02538577       0.02538577       0.89409042
Al      19.17500000       9.05000000       7.02500000       0.00742748      -0.00742748       0.87124838
Al      19.17500000      11.07500000       5.00000000       0.02700317      -0.00845715      -0.73141416
Al      17.13659368       9.05805775       9.18861966      -0.01484253       0.02408366      -0.00044303
Al      17.09881718      11.12618282      11.36401741      -0.03182658       0.03182658      -0.00665969
Al      19.13691834       9.08808166      11.36659332      -0.03344036       0.03344036      -0.00885745
Al      19.16694225      11.08840632       9.18861966      -0.02408366       0.01484253      -0.00044303
Al      17.15000000       9.05000000      13.53602407      -0.02224968      -0.01600129      -0.29768314
Al      17.15000000      11.07500000      15.68560237       0.00740225      -0.00740225       0.13427101
Al      19.17500000       9.05000000      15.68560237       0.03012787      -0.03012787       0.13849072
Al      19.17500000      11.07500000      13.53602407       0.01600129       0.02224968      -0.29768314
Al      17.15000000      13.10000000       5.00000000       0.00436891      -0.00044827      -0.72753250
Al      17.15000000      15.12500000       7.02500000      -0.00912577       0.00081269       0.89283736
Al      19.17500000      13.10000000       7.02500000       0.03359370       0.00580526       0.90712146
Al      19.17500000      15.12500000       5.00000000       0.02533591       0.00184309      -0.72998670
Al      17.13747423      13.11510619       9.19791718      -0.01852429       0.00680513       0.00510995
Al      17.17975281      15.12176645      11.36466220      -0.01566733      -0.00698569      -0.00960215
Al      19.19856826      13.09365720      11.36352519      -0.02301048       0.00349820      -0.00862283
Al      19.19380934      15.12529514       9.18421793      -0.02225147      -0.00542898       0.00066698
Al      17.15000000      13.10000000      13.53602407      -0.05917223       0.03656163      -0.33918610
Al      17.15000000      15.12500000      15.68560237       0.00595508       0.00263065       0.12870109
Al      19.17500000      13.10000000      15.68560237       0.02832121      -0.00160885       0.13439555
Al      19.17500000      15.12500000      13.53602407       0.08715000      -0.00411569      -0.27510209
Al      17.15000000      17.15000000       5.00000000       0.00459572       0.00625648      -0.72885327
Al      17.15000000      19.17500000       7.02500000      -0.04367509       0.01667375       0.89974653
Al      19.17500000      17.15000000       7.02500000       0.02018106      -0.01352565       0.89053192
Al      19.17500000      19.17500000       5.00000000       0.02671813       0.02730899      -0.73269713
Al      17.12890700      17.13215094       9.19940199      -0.02158646      -0.01819428       0.00168895
Al      17.09819571      19.13113230      11.36657209      -0.02828215      -0.03853181      -0.00362705
Al      19.18496231      17.14958087      11.36451834      -0.02434124      -0.01348088      -0.00464772
Al      19.14534446      19.14817423       9.18708889      -0.02725102      -0.02659745       0.00093315
Al      17.15000000      17.15000000      13.53602407      -0.07122238      -0.03204746      -0.33630498
Al      17.15000000      19.17500000      15.68560237       0.00825978       0.02898041       0.13685980
Al      19.17500000      17.15000000      15.68560237       0.02885169       0.00870420       0.13458238
Al      19.17500000      19.17500000      13.53602407      -0.01174743       0.01034309      -0.28916517
Al      17.15000000      21.20000000       5.00000000       0.00786400      -0.34176251      -0.67538662
Al      17.15000000      23.22500000       7.02500000       0.01078373       0.46381344       0.75710987
Al      19.17500000      21.20000000       7.02500000      -0.02292691      -0.22637112       0.93455098
Al      19.17500000      23.22500000       5.00000000       0.02840950       0.19553478      -0.22900998
Al      17.14719919      21.21467531       9.19964390      -0.00931448      -0.03021132      -0.00456243
Al      17.16558920      23.35252999      11.37110184      -0.00563676      -0.00357679      -0.01641506
Al      19.13625984      21.17674068      11.35984780      -0.02747886      -0.03885918      -0.00563365
Al      19.18016976      23.32299821       9.17395690      -0.01015688      -0.00060592       0.00317867
Al      17.15000000      21.20000000      13.53602407      -0.02509206      -0.21382101      -0.38236145
Al      17.15000000      23.22500000      15.68560237       0.01177764       0.05640134      -0.24436824
Al      19.17500000      21.20000000      15.68560237       0.03179442      -0.33974547       0.08143275
Al      19.17500000      23.22500000      13.53602407      -0.03940560       0.29509464      -0.20513495
Al      21.20000000       5.00000000       5.00000000      -0.45787756      -0.09648541      -0.13822899
Al      21.20000000       7.02500000       7.02500000      -0.28452289       0.28452289       0.96713907
Al      23.22500000       5.00000000       7.02500000      -0.14023256       0.14023256       0.83282267
Al      23.22500000       7.02500000       5.00000000       0.09648541       0.45787756      -0.13822899
Al      21.14261556       4.95935883       9.17492569      -0.01670051       0.00012828      -0.00409807
Al      21.13921595       7.08578405      11.34850807      -0.03914186       0.03914186      -0.00941918
Al      23.14518626       5.07981374      11.33636796      -0.01177897       0.01177897      -0.02417209
Al      23.26564117       7.08238444       9.17492569      -0.00012828       0.01670051      -0.00409807
Al      21.20000000       5.00000000      13.53602407      -0.35263080      -0.20022371      -0.28206958
Al      21.20000000       7.02500000      15.68560237      -0.33207369       0.33207369       0.03169341
Al      23.22500000       5.00000000      15.68560237      -0.49746029       0.49746029      -0.58423381
Al      23.22500000       7.02500000      13.53602407       0.20022371       0.35263080      -0.28206958
Al      21.20000000       9.05000000       5.00000000      -0.33861599      -0.02999128      -0.67414566
Al      21.20000000      11.07500000       7.02500000      -0.18910669       0.01239446       0.96246481
Al      23.22500000       9.05000000       7.02500000       0.44526044       0.03714322       0.67003584
Al      23.22500000      11.07500000       5.00000000       0.19796810      -0.01170317      -0.22879412
Al      21.18996831       9.07317955       9.19295099      -0.03235879       0.01945894      -0.00187289
Al      21.22762649      11.06612745      11.35324673      -0.02859021       0.00510268      -0.00662504
Al      23.33415053       9.03969756      11.38124115      -0.00288733       0.00826396      -0.01480142
Al      23.34891757      11.06043693       9.18269760      -0.00408873       0.00621454       0.00431103
Al      21.20000000       9.05000000      13.53602407      -0.22639805       0.01215106      -0.33987503
Al      21.20000000      11.07500000      15.68560237      -0.34172868      -0.00915770       0.08064761
Al      23.22500000       9.05000000      15.68560237       0.05454429      -0.03147296      -0.24533099
Al      23.22500000      11.07500000      13.53602407       0.33711605      -0.01240195      -0.27973322
Al      21.20000000      13.10000000       5.00000000      -0.34232820      -0.00261922      -0.67406350
Al      21.20000000      15.12500000       7.02500000      -0.16384612       0.00172907       0.97943823
Al      23.22500000      13.10000000       7.02500000       0.48280949      -0.01506690       0.77179675
Al      23.22500000      15.12500000       5.00000000       0.19810714       0.00270076      -0.22840229
Al      21.23224414      13.09377650       9.19887833      -0.03346662       0.00256524      -0.00309500
Al      21.23099399      15.12903893      11.35083578      -0.03394194      -0.00320656      -0.00759785
Al      23.34970011      13.09582814      11.37233379      -0.00922162       0.00273709      -0.01700717
Al      23.34837237      15.12903491       9.18137676      -0.00794669      -0.00298180       0.00447139
Al      21.20000000      13.10000000      13.53602407      -0.16557851      -0.00294384      -0.38611929
Al      21.20000000      15.12500000      15.68560237      -0.34299010       0.00310131       0.07995248
Al      23.22500000      13.10000000      15.68560237       0.05658360      -0.00310801      -0.24483528
Al      23.22500000      15.12500000      13.53602407       0.33828169       0.01409036      -0.30559400
Al      21.20000000      17.15000000       5.00000000      -0.34169805       0.00838144      -0.67459589
Al      21.20000000      19.17500000       7.02500000      -0.22204058      -0.01178519       0.93181223
Al      23.22500000      17.15000000       7.02500000       0.47685115       0.01170359       0.74946553
Al      23.22500000      19.17500000       5.00000000       0.19613764       0.02874766      -0.22805725
Al      21.22535011      17.15802376       9.19716733      -0.02904537      -0.00739674      -0.00420710
Al      21.19851982      19.15926875      11.35935894      -0.03166157      -0.01936630      -0.00605628
Al      23.34794837      17.16349867      11.37109485      -0.00625020      -0.00731914      -0.01644027
Al      23.33350952      19.18474909       9.17303728       0.00025312      -0.00985746       0.00237316
Al      21.20000000      17.15000000      13.53602407      -0.17491270      -0.01109704      -0.35771394