299
Lattice="28.224999999999998 0.0 0.0 0.0 28.224999999999998 0.0 0.0 0.0 20.125" Properties=species:S:1:pos:R:3 energy=-16391.089791952414 pbc="T T T"
Al       5.00000000       5.00000000       5.00000000
Al       5.00000000       7.02500000       7.02500000
Al       7.02500000       5.00000000       7.02500000
Al       7.02500000       7.02500000       5.00000000
Al       5.84497396       5.81317712       9.75344360
Al       5.49625649       7.43210842      12.50020674
Al       7.50976034       5.31768057      12.43159982
Al       7.86388500       7.59071828       9.88952692
Al       5.00000000       5.00000000      15.19262913
Al       5.00000000       7.02500000      17.81552317
Al       7.02500000       5.00000000      17.81552317
Al       7.02500000       7.02500000      15.19262913
Al       5.00000000       9.05000000       5.00000000
Al       5.00000000      11.07500000       7.02500000
Al       7.02500000       9.05000000       7.02500000
Al       7.02500000      11.07500000       5.00000000
Al       5.44170442       9.09769643       9.69336012
Al       5.24471735      11.13019906      12.44694943
Al       7.47538849       9.38897840      12.43065468
Al       7.03449238      11.54948773       9.74513158
Al       5.00000000       9.05000000      15.19262913
Al       5.00000000      11.07500000      17.81552317
Al       7.02500000       9.05000000      17.81552317
Al       7.02500000      11.07500000      15.19262913
Al       5.00000000      13.10000000       5.00000000
Al       5.00000000      15.12500000       7.02500000
Al       7.02500000      13.10000000       7.02500000
Al       7.02500000      15.12500000       5.00000000
Al       5.03152959      13.55739400       9.81807489
Al       5.07801173      15.44419798      12.59081179
Al       7.00842009      13.42034613      12.55565180
Al       7.66447878      14.72327097       9.78592189
Al       5.00000000      13.10000000      15.19262913
Al       5.00000000      15.12500000      17.81552317
Al       7.02500000      13.10000000      17.81552317
Al       7.02500000      15.12500000      15.19262913
Al       5.00000000      17.15000000       5.00000000
Al       5.00000000      19.17500000       7.02500000
Al       7.02500000      17.15000000       7.02500000
Al       7.02500000      19.17500000       5.00000000
Al       5.59522518      16.77921882       9.74765527
Al       5.57416288      18.81576081      12.39679093
Al       7.61967653      16.79022043      12.39665341
Al       7.05669130      19.23039951       9.59937329
Al       5.00000000      17.15000000      15.19262913
Al       5.00000000      19.17500000      17.81552317
Al       7.02500000      17.15000000      17.81552317
Al       7.02500000      19.17500000      15.19262913
Al       5.00000000      21.20000000       5.00000000
Al       5.00000000      23.22500000       7.02500000
Al       7.02500000      21.20000000       7.02500000
Al       7.02500000      23.22500000       5.00000000
Al       5.07027349      21.09950580       9.47712042
Al       6.62306303      21.60193697      12.34952272
Al       8.63708076      19.58791924      12.41255935
Al       7.12549420      23.15472651       9.47712042
Al       5.00000000      21.20000000      15.19262913
Al       5.00000000      23.22500000      17.81552317
Al       7.02500000      21.20000000      17.81552317
Al       7.02500000      23.22500000      15.19262913
Al       9.05000000       5.00000000       5.00000000
Al       9.05000000       7.02500000       7.02500000
Al      11.07500000       5.00000000       7.02500000
Al      11.07500000       7.02500000       5.00000000
Al       9.26448342       5.15977434       9.63162305
Al       9.36582936       7.36106565      12.63541157
Al      11.08880046       5.16328466      12.43936794
Al      10.92259238       7.58402953       9.81329270
Al       9.05000000       5.00000000      15.19262913
Al       9.05000000       7.02500000      17.81552317
Al      11.07500000       5.00000000      17.81552317
Al      11.07500000       7.02500000      15.19262913
Al       9.05000000       9.05000000       5.00000000
Al       9.05000000      11.07500000       7.02500000
Al      11.07500000       9.05000000       7.02500000
Al      11.07500000      11.07500000       5.00000000
Al       9.22194131       9.87592020       9.83003130
Al       9.07826259      11.61164244      12.58441367
Al      11.00643753       9.59461763      12.47073906
Al      11.81446128      10.77472531       9.74303738
Al       9.05000000       9.05000000      15.19262913
Al       9.05000000      11.07500000      17.81552317
Al      11.07500000       9.05000000      17.81552317
Al      11.07500000      11.07500000      15.19262913
Al       9.05000000      13.10000000       5.00000000
Al       9.05000000      15.12500000       7.02500000
Al      11.07500000      13.10000000       7.02500000
Al      11.07500000      15.12500000       5.00000000
Al       9.72108699      12.76260391       9.76473674
Al       9.58844964      14.76335121      12.47483423
Al      11.64867490      12.80131807      12.39819332
Al      10.89711479      15.34130936       9.65562776
Al       9.05000000      13.10000000      15.19262913
Al       9.05000000      15.12500000      17.81552317
Al      11.07500000      13.10000000      17.81552317
Al      11.07500000      15.12500000      15.19262913
Al       9.05000000      17.15000000       5.00000000
Al       9.05000000      19.17500000       7.02500000
Al      11.07500000      17.15000000       7.02500000
Al      11.07500000      19.17500000       5.00000000
Al       8.93959327      17.27624421       9.56539587
Al      10.64097840      17.58402160      12.31689297
Al      12.63517513      15.58982487      12.39624724
Al      10.94875579      19.28540673       9.56539587
Al       9.05000000      17.15000000      15.19262913
Al       9.05000000      19.17500000      17.81552317
Al      11.07500000      17.15000000      17.81552317
Al      11.07500000      19.17500000      15.19262913
Al       9.05000000      21.20000000       5.00000000
Al       9.05000000      23.22500000       7.02500000
Al      11.07500000      21.20000000       7.02500000
Al      11.07500000      23.22500000       5.00000000
Al       8.99460049      21.16830870       9.59937329
Al       9.40923919      22.65083712      12.39679093
Al      11.43477957      20.60532347      12.39665341
Al      11.44578118      22.62977482       9.74765527
Al       9.05000000      21.20000000      15.19262913
Al       9.05000000      23.22500000      17.81552317
Al      11.07500000      21.20000000      17.81552317
Al      11.07500000      23.22500000      15.19262913
Al      13.10000000       5.00000000       5.00000000
Al      13.10000000       7.02500000       7.02500000
Al      15.12500000       5.00000000       7.02500000
Al      15.12500000       7.02500000       5.00000000
Al      12.95762374       5.56249894       9.76517206
Al      12.85366936       7.44786497      12.57034545
Al      15.02182309       5.51614978      12.42254446
Al      15.64216812       6.81142526       9.62474422
Al      13.10000000       5.00000000      15.19262913
Al      13.10000000       7.02500000      17.81552317
Al      15.12500000       5.00000000      17.81552317
Al      15.12500000       7.02500000      15.19262913
Al      13.10000000       9.05000000       5.00000000
Al      13.10000000      11.07500000       7.02500000
Al      15.12500000       9.05000000       7.02500000
Al      15.12500000      11.07500000       5.00000000
Al      13.62851361       8.68862510       9.79186841
Al      13.59794688      10.79406369      12.50853962
Al      15.47308638       8.76827465      12.47267235
Al      14.85017772      11.35805506       9.65780124
Al      13.10000000       9.05000000      15.19262913
Al      13.10000000      11.07500000      17.81552317
Al      15.12500000       9.05000000      17.81552317
Al      15.12500000      11.07500000      15.19262913
Al      13.10000000      13.10000000       5.00000000
Al      13.10000000      15.12500000       7.02500000
Al      15.12500000      13.10000000       7.02500000
Al      15.12500000      15.12500000       5.00000000
Al      12.87661208      13.37575147       9.57938725
Al      14.63447279      13.59052721      12.28794284
Al      14.84924853      15.34838792       9.57938725
Al      13.10000000      13.10000000      15.19262913
Al      13.10000000      15.12500000      17.81552317
Al      15.12500000      13.10000000      17.81552317
Al      15.12500000      15.12500000      15.19262913
Al      13.10000000      17.15000000       5.00000000
Al      13.10000000      19.17500000       7.02500000
Al      15.12500000      17.15000000       7.02500000
Al      15.12500000      19.17500000       5.00000000
Al      12.88369064      17.32788521       9.65562776
Al      13.46164879      18.63655036      12.47483423
Al      15.42368193      16.57632510      12.39819332
Al      15.46239609      18.50391301       9.76473674
Al      13.10000000      17.15000000      15.19262913
Al      13.10000000      19.17500000      17.81552317
Al      15.12500000      17.15000000      17.81552317
Al      15.12500000      19.17500000      15.19262913
Al      13.10000000      21.20000000       5.00000000
Al      13.10000000      23.22500000       7.02500000
Al      15.12500000      21.20000000       7.02500000
Al      15.12500000      23.22500000       5.00000000
Al      13.50172903      20.56052122       9.78592189
Al      12.78080202      23.14698827      12.59081179
Al      14.80465387      21.21657991      12.55565180
Al      14.66760600      23.19347041       9.81807489
Al      13.10000000      21.20000000      15.19262913
Al      13.10000000      23.22500000      17.81552317
Al      15.12500000      21.20000000      17.81552317
Al      15.12500000      23.22500000      15.19262913
Al      17.15000000       5.00000000       5.00000000
Al      17.15000000       7.02500000       7.02500000
Al      19.17500000       5.00000000       7.02500000
Al      19.17500000       7.02500000       5.00000000
Al      17.65773432       4.86708548       9.90356322
Al      17.54438288       6.96678674      12.47452555
Al      19.48033283       4.99450276      12.62876611
Al      18.81905665       7.43487898       9.61318972
Al      17.15000000       5.00000000      15.19262913
Al      17.15000000       7.02500000      17.81552317
Al      19.17500000       5.00000000      17.81552317
Al      19.17500000       7.02500000      15.19262913
Al      17.15000000       9.05000000       5.00000000
Al      17.15000000      11.07500000       7.02500000
Al      19.17500000       9.05000000       7.02500000
Al      19.17500000      11.07500000       5.00000000
Al      16.83120700       9.39494070       9.68839652
Al      16.61293824      11.61206176      12.37901772
Al      18.54671799       9.67828201      12.35462650
Al      18.83005930      11.39379300       9.68839652
Al      17.15000000       9.05000000      15.19262913
Al      17.15000000      11.07500000      17.81552317
Al      19.17500000       9.05000000      17.81552317
Al      19.17500000      11.07500000      15.19262913
Al      17.15000000      13.10000000       5.00000000
Al      17.15000000      15.12500000       7.02500000
Al      19.17500000      13.10000000       7.02500000
Al      19.17500000      15.12500000       5.00000000
Al      16.86694494      13.37482228       9.65780124
Al      17.43093631      14.62705312      12.50853962
Al      19.45672535      12.75191362      12.47267235
Al      19.53637490      14.59648639       9.79186841
Al      17.15000000      13.10000000      15.19262913
Al      17.15000000      15.12500000      17.81552317
Al      19.17500000      13.10000000      17.81552317
Al      19.17500000      15.12500000      15.19262913
Al      17.15000000      17.15000000       5.00000000
Al      17.15000000      19.17500000       7.02500000
Al      19.17500000      17.15000000       7.02500000
Al      19.17500000      19.17500000       5.00000000
Al      17.45027469      16.41053872       9.74303738
Al      16.61335756      19.14673741      12.58441367
Al      18.63038237      17.21856247      12.47073906
Al      18.34907980      19.00305869       9.83003130
Al      17.15000000      17.15000000      15.19262913
Al      17.15000000      19.17500000      17.81552317
Al      19.17500000      17.15000000      17.81552317
Al      19.17500000      19.17500000      15.19262913
Al      17.15000000      21.20000000       5.00000000
Al      17.15000000      23.22500000       7.02500000
Al      19.17500000      21.20000000       7.02500000
Al      19.17500000      23.22500000       5.00000000
Al      16.67551227      21.19050762       9.74513158
Al      17.09480094      22.98028265      12.44694943
Al      18.83602160      20.74961151      12.43065468
Al      19.12730357      22.78329558       9.69336012
Al      17.15000000      21.20000000      15.19262913
Al      17.15000000      23.22500000      17.81552317
Al      19.17500000      21.20000000      17.81552317
Al      19.17500000      23.22500000      15.19262913
Al      21.20000000       5.00000000       5.00000000
Al      21.20000000       7.02500000       7.02500000
Al      23.22500000       5.00000000       7.02500000
Al      23.22500000       7.02500000       5.00000000
Al      20.78082607       5.41447337       9.70645822
Al      20.49285003       7.73214997      12.25731485
Al      22.43065968       5.79434032      12.42365723
Al      22.81052663       7.44417393       9.70645822
Al      21.20000000       5.00000000      15.19262913
Al      21.20000000       7.02500000      17.81552317
Al      23.22500000       5.00000000      17.81552317
Al      23.22500000       7.02500000      15.19262913
Al      21.20000000       9.05000000       5.00000000
Al      21.20000000      11.07500000       7.02500000
Al      23.22500000       9.05000000       7.02500000
Al      23.22500000      11.07500000       5.00000000
Al      20.79012102       9.40594335       9.61318972
Al      21.25821326      10.68061712      12.47452555
Al      23.23049724       8.74466717      12.62876611
Al      23.35791452      10.56726568       9.90356322
Al      21.20000000       9.05000000      15.19262913
Al      21.20000000      11.07500000      17.81552317
Al      23.22500000       9.05000000      17.81552317
Al      23.22500000      11.07500000      15.19262913
Al      21.20000000      13.10000000       5.00000000
Al      21.20000000      15.12500000       7.02500000
Al      23.22500000      13.10000000       7.02500000
Al      23.22500000      15.12500000       5.00000000
Al      21.41357474      12.58283188       9.62474422
Al      20.77713503      15.37133064      12.57034545
Al      22.70885022      13.20317691      12.42254446
Al      22.66250106      15.26737626       9.76517206
Al      21.20000000      13.10000000      15.19262913
Al      21.20000000      15.12500000      17.81552317
Al      23.22500000      13.10000000      17.81552317
Al      23.22500000      15.12500000      15.19262913
Al      21.20000000      17.15000000       5.00000000
Al      21.20000000      19.17500000       7.02500000
Al      23.22500000      17.15000000       7.02500000
Al      23.22500000      19.17500000       5.00000000
Al      20.64097047      17.30240762       9.81329270
Al      20.86393435      18.85917064      12.63541157
Al      23.06171534      17.13619954      12.43936794
Al      23.06522566      18.96051658       9.63162305
Al      21.20000000      17.15000000      15.19262913
Al      21.20000000      19.17500000      17.81552317
Al      23.22500000      17.15000000      17.81552317
Al      23.22500000      19.17500000      15.19262913
Al      21.20000000      21.20000000       5.00000000
Al      21.20000000      23.22500000       7.02500000
Al      23.22500000      21.20000000       7.02500000
Al      23.22500000      23.22500000       5.00000000
Al      20.63428172      20.36111500       9.88952692
Al      20.79289158      22.72874351      12.50020674
Al      22.90731943      20.71523966      12.43159982
Al      22.41182288      22.38002604       9.75344360
Al      21.20000000      21.20000000      15.19262913
Al      21.20000000      23.22500000      17.81552317
Al      23.22500000      21.20000000      17.81552317
Al      23.22500000      23.22500000      15.19262913
