299
Lattice="28.224999999999998 0.0 0.0 0.0 28.224999999999998 0.0 0.0 0.0 20.125" Properties=species:S:1:pos:R:3 energy=-16459.79371049219 pbc="T T T"
Al       5.00000000       5.00000000       5.00000000
Al       5.00000000       7.02500000       7.02500000
Al       7.02500000       5.00000000       7.02500000
Al       7.02500000       7.02500000       5.00000000
Al       5.18876345       5.19281235       9.33999093
Al       5.06750137       7.14784872      11.58644812
Al       7.12755189       5.02227632      11.59132468
Al       7.16248443       7.15963269       9.29802914
Al       5.00000000       5.00000000      13.84150931
Al       5.00000000       7.02500000      16.07836912
Al       7.02500000       5.00000000      16.07836912
Al       7.02500000       7.02500000      13.84150931
Al       5.00000000       9.05000000       5.00000000
Al       5.00000000      11.07500000       7.02500000
Al       7.02500000       9.05000000       7.02500000
Al       7.02500000      11.07500000       5.00000000
Al       4.97453107       9.04985479       9.26905169
Al       4.94776399      11.05487780      11.56163340
Al       7.12207558       9.13907741      11.56713684
Al       7.05452727      11.08184598       9.28904449
Al       5.00000000       9.05000000      13.84150931
Al       5.00000000      11.07500000      16.07836912
Al       7.02500000       9.05000000      16.07836912
Al       7.02500000      11.07500000      13.84150931
Al       5.00000000      13.10000000       5.00000000
Al       5.00000000      15.12500000       7.02500000
Al       7.02500000      13.10000000       7.02500000
Al       7.02500000      15.12500000       5.00000000
Al       4.95735281      13.09406554       9.27997321
Al       4.96671331      15.12962815      11.56109825
Al       7.02655648      13.08266537      11.55809598
Al       7.03402968      15.13201538       9.28705649
Al       5.00000000      13.10000000      13.84150931
Al       5.00000000      15.12500000      16.07836912
Al       7.02500000      13.10000000      16.07836912
Al       7.02500000      15.12500000      13.84150931
Al       5.00000000      17.15000000       5.00000000
Al       5.00000000      19.17500000       7.02500000
Al       7.02500000      17.15000000       7.02500000
Al       7.02500000      19.17500000       5.00000000
Al       4.95124487      17.16813686       9.28140867
Al       4.95632221      19.19194618      11.57522390
Al       7.03049285      17.17031773      11.56071590
Al       7.09420543      19.11997686       9.28082437
Al       5.00000000      17.15000000      13.84150931
Al       5.00000000      19.17500000      16.07836912
Al       7.02500000      17.15000000      16.07836912
Al       7.02500000      19.17500000      13.84150931
Al       5.00000000      21.20000000       5.00000000
Al       5.00000000      23.22500000       7.02500000
Al       7.02500000      21.20000000       7.02500000
Al       7.02500000      23.22500000       5.00000000
Al       5.04262563      21.08818320       9.25221134
Al       5.22475018      23.00024982      11.50090747
Al       7.20404969      21.02095031      11.55027798
Al       7.13681680      23.18237437       9.25221134
Al       5.00000000      21.20000000      13.84150931
Al       5.00000000      23.22500000      16.07836912
Al       7.02500000      21.20000000      16.07836912
Al       7.02500000      23.22500000      13.84150931
Al       9.05000000       5.00000000       5.00000000
Al       9.05000000       7.02500000       7.02500000
Al      11.07500000       5.00000000       7.02500000
Al      11.07500000       7.02500000       5.00000000
Al       9.03998625       4.95725394       9.26874440
Al       9.08319488       7.07432559      11.56935118
Al      11.05979193       4.95959454      11.56116389
Al      11.06202808       7.04056599       9.28648826
Al       9.05000000       5.00000000      13.84150931
Al       9.05000000       7.02500000      16.07836912
Al      11.07500000       5.00000000      16.07836912
Al      11.07500000       7.02500000      13.84150931
Al       9.05000000       9.05000000       5.00000000
Al       9.05000000      11.07500000       7.02500000
Al      11.07500000       9.05000000       7.02500000
Al      11.07500000      11.07500000       5.00000000
Al       9.11968969       9.12534747       9.28347563
Al       9.15720953      11.17923730      11.56903989
Al      11.08328923       9.05935775      11.56932580
Al      11.11606511      11.11770307       9.29513579
Al       9.05000000       9.05000000      13.84150931
Al       9.05000000      11.07500000      16.07836912
Al      11.07500000       9.05000000      16.07836912
Al      11.07500000      11.07500000      13.84150931
Al       9.05000000      13.10000000       5.00000000
Al       9.05000000      15.12500000       7.02500000
Al      11.07500000      13.10000000       7.02500000
Al      11.07500000      15.12500000       5.00000000
Al       9.06619243      13.11659848       9.29079636
Al       9.02422984      15.12669220      11.56610307
Al      11.27377042      13.29992403      11.55270882
Al      11.09676216      15.11643844       9.23940387
Al       9.05000000      13.10000000      13.84150931
Al       9.05000000      15.12500000      16.07836912
Al      11.07500000      13.10000000      16.07836912
Al      11.07500000      15.12500000      13.84150931
Al       9.05000000      17.15000000       5.00000000
Al       9.05000000      19.17500000       7.02500000
Al      11.07500000      17.15000000       7.02500000
Al      11.07500000      19.17500000       5.00000000
Al       9.08987172      17.11415967       9.28821017
Al       9.20168658      19.02331342      11.56749517
Al      11.29995580      16.92504420      11.54828333
Al      11.11084033      19.13512828       9.28821017
Al       9.05000000      17.15000000      13.84150931
Al       9.05000000      19.17500000      16.07836912
Al      11.07500000      17.15000000      16.07836912
Al      11.07500000      19.17500000      13.84150931
Al       9.05000000      21.20000000       5.00000000
Al       9.05000000      23.22500000       7.02500000
Al      11.07500000      21.20000000       7.02500000
Al      11.07500000      23.22500000       5.00000000
Al       9.10502314      21.13079457       9.28082437
Al       9.03305382      23.26867779      11.57522390
Al      11.05468227      21.19450715      11.56071590
Al      11.05686314      23.27375513       9.28140867
Al       9.05000000      21.20000000      13.84150931
Al       9.05000000      23.22500000      16.07836912
Al      11.07500000      21.20000000      16.07836912
Al      11.07500000      23.22500000      13.84150931
Al      13.10000000       5.00000000       5.00000000
Al      13.10000000       7.02500000       7.02500000
Al      15.12500000       5.00000000       7.02500000
Al      15.12500000       7.02500000       5.00000000
Al      13.09539331       4.96357466       9.28088891
Al      13.09307839       7.04049208      11.55704451
Al      15.12877769       4.96667837      11.56158945
Al      15.13565457       7.03621297       9.28791636
Al      13.10000000       5.00000000      13.84150931
Al      13.10000000       7.02500000      16.07836912
Al      15.12500000       5.00000000      16.07836912
Al      15.12500000       7.02500000      13.84150931
Al      13.10000000       9.05000000       5.00000000
Al      13.10000000      11.07500000       7.02500000
Al      15.12500000       9.05000000       7.02500000
Al      15.12500000      11.07500000       5.00000000
Al      13.09922939       9.04379667       9.27902149
Al      13.11058242      11.05407621      11.56490297
Al      15.13693668       9.03479141      11.56688188
Al      15.09923183      11.09940202       9.29188334
Al      13.10000000       9.05000000      13.84150931
Al      13.10000000      11.07500000      16.07836912
Al      15.12500000       9.05000000      16.07836912
Al      15.12500000      11.07500000      13.84150931
Al      13.10000000      13.10000000       5.00000000
Al      13.10000000      15.12500000       7.02500000
Al      15.12500000      13.10000000       7.02500000
Al      15.12500000      15.12500000       5.00000000
Al      13.10535909      13.12505597       9.24289175
Al      14.92043261      13.30456739      11.55402002
Al      15.09994403      15.11964091       9.24289175
Al      13.10000000      13.10000000      13.84150931
Al      13.10000000      15.12500000      16.07836912
Al      15.12500000      13.10000000      16.07836912
Al      15.12500000      15.12500000      13.84150931
Al      13.10000000      17.15000000       5.00000000
Al      13.10000000      19.17500000       7.02500000
Al      15.12500000      17.15000000       7.02500000
Al      15.12500000      19.17500000       5.00000000
Al      13.10856156      17.12823784       9.23940387
Al      13.09830780      19.20077016      11.56610307
Al      14.92507597      16.95122958      11.55270882
Al      15.10840152      19.15880757       9.29079636
Al      13.10000000      17.15000000      13.84150931
Al      13.10000000      19.17500000      16.07836912
Al      15.12500000      17.15000000      16.07836912
Al      15.12500000      19.17500000      13.84150931
Al      13.10000000      21.20000000       5.00000000
Al      13.10000000      23.22500000       7.02500000
Al      15.12500000      21.20000000       7.02500000
Al      15.12500000      23.22500000       5.00000000
Al      13.09298462      21.19097032       9.28705649
Al      13.09537185      23.25828669      11.56109825
Al      15.14233463      21.19844352      11.55809598
Al      15.13093446      23.26764719       9.27997321
Al      13.10000000      21.20000000      13.84150931
Al      13.10000000      23.22500000      16.07836912
Al      15.12500000      21.20000000      16.07836912
Al      15.12500000      23.22500000      13.84150931
Al      17.15000000       5.00000000       5.00000000
Al      17.15000000       7.02500000       7.02500000
Al      19.17500000       5.00000000       7.02500000
Al      19.17500000       7.02500000       5.00000000
Al      17.16687526       4.95129105       9.28150406
Al      17.16604048       7.03484989      11.56020808
Al      19.18824275       4.95987278      11.57464039
Al      19.12469088       7.08847067       9.28003272
Al      17.15000000       5.00000000      13.84150931
Al      17.15000000       7.02500000      16.07836912
Al      19.17500000       5.00000000      16.07836912
Al      19.17500000       7.02500000      13.84150931
Al      17.15000000       9.05000000       5.00000000
Al      17.15000000      11.07500000       7.02500000
Al      19.17500000       9.05000000       7.02500000
Al      19.17500000      11.07500000       5.00000000
Al      17.11954535       9.08642712       9.28280487
Al      17.03801822      11.18698178      11.56517978
Al      19.07126344       9.15373656      11.56765223
Al      19.13857288      11.10545465       9.28280487
Al      17.15000000       9.05000000      13.84150931
Al      17.15000000      11.07500000      16.07836912
Al      19.17500000       9.05000000      16.07836912
Al      19.17500000      11.07500000      13.84150931
Al      17.15000000      13.10000000       5.00000000
Al      17.15000000      15.12500000       7.02500000
Al      19.17500000      13.10000000       7.02500000
Al      19.17500000      15.12500000       5.00000000
Al      17.12559798      13.12576817       9.29188334
Al      17.17092379      15.11441758      11.56490297
Al      19.19020859      13.08806332      11.56688188
Al      19.18120333      15.12577061       9.27902149
Al      17.15000000      13.10000000      13.84150931
Al      17.15000000      15.12500000      16.07836912
Al      19.17500000      13.10000000      16.07836912
Al      19.17500000      15.12500000      13.84150931
Al      17.15000000      17.15000000       5.00000000
Al      17.15000000      19.17500000       7.02500000
Al      19.17500000      17.15000000       7.02500000
Al      19.17500000      19.17500000       5.00000000
Al      17.10729693      17.10893489       9.29513579
Al      17.04576270      19.06779047      11.56903989
Al      19.16564225      17.14171077      11.56932580
Al      19.09965253      19.10531031       9.28347563
Al      17.15000000      17.15000000      13.84150931
Al      17.15000000      19.17500000      16.07836912
Al      19.17500000      17.15000000      16.07836912
Al      19.17500000      19.17500000      13.84150931
Al      17.15000000      21.20000000       5.00000000
Al      17.15000000      23.22500000       7.02500000
Al      19.17500000      21.20000000       7.02500000
Al      19.17500000      23.22500000       5.00000000
Al      17.14315402      21.17047273       9.28904449
Al      17.17012220      23.27723601      11.56163340
Al      19.08592259      21.10292442      11.56713684
Al      19.17514521      23.25046893       9.26905169
Al      17.15000000      21.20000000      13.84150931
Al      17.15000000      23.22500000      16.07836912
Al      19.17500000      21.20000000      16.07836912
Al      19.17500000      23.22500000      13.84150931
Al      21.20000000       5.00000000       5.00000000
Al      21.20000000       7.02500000       7.02500000
Al      23.22500000       5.00000000       7.02500000
Al      23.22500000       7.02500000       5.00000000
Al      21.09325842       5.03674678       9.25345087
Al      21.04636101       7.17863899      11.55053617
Al      23.01850397       5.20649603      11.50333061
Al      23.18825322       7.13174158       9.25345087
Al      21.20000000       5.00000000      13.84150931
Al      21.20000000       7.02500000      16.07836912
Al      23.22500000       5.00000000      16.07836912
Al      23.22500000       7.02500000      13.84150931
Al      21.20000000       9.05000000       5.00000000
Al      21.20000000      11.07500000       7.02500000
Al      23.22500000       9.05000000       7.02500000
Al      23.22500000      11.07500000       5.00000000
Al      21.13652933       9.10030912       9.28003272
Al      21.19015011      11.05895952      11.56020808
Al      23.26512722       9.03675725      11.57464039
Al      23.27370895      11.05812474       9.28150406
Al      21.20000000       9.05000000      13.84150931
Al      21.20000000      11.07500000      16.07836912
Al      23.22500000       9.05000000      16.07836912
Al      23.22500000      11.07500000      13.84150931
Al      21.20000000      13.10000000       5.00000000
Al      21.20000000      15.12500000       7.02500000
Al      23.22500000      13.10000000       7.02500000
Al      23.22500000      15.12500000       5.00000000
Al      21.18878703      13.08934543       9.28791636
Al      21.18450792      15.13192161      11.55704451
Al      23.25832163      13.09622231      11.56158945
Al      23.26142534      15.12960669       9.28088891
Al      21.20000000      13.10000000      13.84150931
Al      21.20000000      15.12500000      16.07836912
Al      23.22500000      13.10000000      16.07836912
Al      23.22500000      15.12500000      13.84150931
Al      21.20000000      17.15000000       5.00000000
Al      21.20000000      19.17500000       7.02500000
Al      23.22500000      17.15000000       7.02500000
Al      23.22500000      19.17500000       5.00000000
Al      21.18443401      17.16297192       9.28648826
Al      21.15067441      19.14180512      11.56935118
Al      23.26540546      17.16520807      11.56116389
Al      23.26774606      19.18501375       9.26874440
Al      21.20000000      17.15000000      13.84150931
Al      21.20000000      19.17500000      16.07836912
Al      23.22500000      17.15000000      16.07836912
Al      23.22500000      19.17500000      13.84150931
Al      21.20000000      21.20000000       5.00000000
Al      21.20000000      23.22500000       7.02500000
Al      23.22500000      21.20000000       7.02500000
Al      23.22500000      23.22500000       5.00000000
Al      21.06536731      21.06251557       9.29802914
Al      21.07715128      23.15749863      11.58644812
Al      23.20272368      21.09744811      11.59132468
Al      23.03218765      23.03623655       9.33999093
Al      21.20000000      21.20000000      13.84150931
Al      21.20000000      23.22500000      16.07836912
Al      23.22500000      21.20000000      16.07836912
Al      23.22500000      23.22500000      13.84150931
