299
Lattice="28.224999999999998 0.0 0.0 0.0 28.224999999999998 0.0 0.0 0.0 20.125" Properties=species:S:1:pos:R:3:forces:R:3 energy=-16413.994098021652 pbc="T T T"
Al       5.00000000       5.00000000       5.00000000       0.40083336       0.39623004      -0.01757497
Al       5.00000000       7.02500000       7.02500000      -0.02702811       0.58685603       1.26856544
Al       7.02500000       5.00000000       7.02500000       0.63747760      -0.04252540       1.29985457
Al       7.02500000       7.02500000       5.00000000       0.31633105       0.31392549      -0.79315374
Al       5.74522895       5.72855518       9.65926296       0.00014289      -0.00116337       0.00248253
Al       5.40015768       7.36839574      12.26720410       0.00645663      -0.00333032       0.00569195
Al       7.42684264       5.26856056      12.21463047      -0.00124937      -0.00815753       0.00923495
Al       7.73343103       7.54807702       9.70172400       0.00542715      -0.00963522       0.00687230
Al       5.00000000       5.00000000      14.83442366       1.07302715       1.04019822      -0.20944923
Al       5.00000000       7.02500000      17.35497327       0.31973228       0.48564125      -1.08910570
Al       7.02500000       5.00000000      17.35497327       0.48669792       0.31646865      -1.09060198
Al       7.02500000       7.02500000      14.83442366       0.56217347       0.46459695       0.11206891
Al       5.00000000       9.05000000       5.00000000      -0.16543739      -0.04333746      -0.42228250
Al       5.00000000      11.07500000       7.02500000      -0.21340619       0.08838983       1.70828100
Al       7.02500000       9.05000000       7.02500000       0.49548182       0.05304098       1.92079034
Al       7.02500000      11.07500000       5.00000000       0.31688834      -0.01932717      -0.84661255
Al       5.28110416       9.02016803       9.56596638       0.03569123       0.01230687       0.00968519
Al       5.13959623      11.10104902      12.18321366       0.00457910       0.00466392       0.02210453
Al       7.35355540       9.35300967      12.18519564       0.03032745       0.01238784       0.03202258
Al       6.98006192      11.37589708       9.57627305       0.00933276       0.03639254       0.02300725
Al       5.00000000       9.05000000      14.83442366       0.27409852       0.15658783      -0.01189525
Al       5.00000000      11.07500000      17.35497327       0.20706286      -0.01299865      -0.99854694
Al       7.02500000       9.05000000      17.35497327       0.35088181      -0.03991133      -0.96691811
Al       7.02500000      11.07500000      14.83442366       0.34954806       0.06917007      -0.07722501
Al       5.00000000      13.10000000       5.00000000      -0.18615033       0.00072169      -0.41568815
Al       5.00000000      15.12500000       7.02500000      -0.10729902      -0.01526201       1.39999388
Al       7.02500000      13.10000000       7.02500000       0.34862559       0.06081939       1.82699925
Al       7.02500000      15.12500000       5.00000000       0.31622660       0.00804109      -0.84514463
Al       4.99400151      13.41046869       9.62625340      -0.01127407       0.02152382       0.02230386
Al       5.12662629      15.33707567      12.26866737      -0.01288096       0.01367712       0.03802930
Al       7.05034393      13.26303870      12.24622818       0.00018943       0.02638278       0.06068281
Al       7.50383878      14.80479956       9.62527511       0.02299040      -0.00420754       0.02068075
Al       5.00000000      13.10000000      14.83442366       0.19930707       0.04358697      -0.20131817
Al       5.00000000      15.12500000      17.35497327       0.20620499       0.00975141      -1.01118829
Al       7.02500000      13.10000000      17.35497327       0.35074802      -0.00092288      -0.97416792
Al       7.02500000      15.12500000      14.83442366       0.45243639       0.03579736      -0.04451832
Al       5.00000000      17.15000000       5.00000000      -0.17067697       0.01612026      -0.43070529
Al       5.00000000      19.17500000       7.02500000      -0.15651832      -0.21938901       1.44653528
Al       7.02500000      17.15000000       7.02500000       0.41990008      -0.06818357       1.62914858
Al       7.02500000      19.17500000       5.00000000       0.31881914       0.05237058      -0.80778861
Al       5.44306447      16.85837903       9.57865222       0.01321846       0.01017103       0.02581813
Al       5.50610924      18.85433503      12.12811352       0.00277652       0.00152523       0.02122209
Al       7.55485906      16.85936484      12.14334261      -0.00365171       0.00147839       0.04229224
Al       7.10014564      19.18061028       9.48814632      -0.04145304       0.01791904       0.01204273
Al       5.00000000      17.15000000      14.83442366       0.30318292       0.04816638       0.01473710
Al       5.00000000      19.17500000      17.35497327       0.22278464       0.03721807      -0.98612367
Al       7.02500000      17.15000000      17.35497327       0.34942516       0.01755962      -0.96522444
Al       7.02500000      19.17500000      14.83442366       0.38454727       0.01776937       0.01996042
Al       5.00000000      21.20000000       5.00000000      -0.07932714      -0.44165932      -0.26058497
Al       5.00000000      23.22500000       7.02500000       0.48253412      -0.48253412       0.97583587
Al       7.02500000      21.20000000       7.02500000       0.37388963      -0.37388963       1.50920712
Al       7.02500000      23.22500000       5.00000000       0.44165932       0.07932714      -0.26058497
Al       5.09928664      21.05329455       9.41634353      -0.01865577       0.00644217       0.00427505
Al       6.63833668      21.58666332      12.13043895       0.01851361      -0.01851361       0.03180566
Al       8.63419448      19.59080552      12.18163487       0.01425646      -0.01425646       0.02348574
Al       7.17170545      23.12571336       9.41634353      -0.00644217       0.01865577       0.00427505
Al       5.00000000      21.20000000      14.83442366       0.35447419      -0.69209789       0.13352497
Al       5.00000000      23.22500000      17.35497327       0.84554903      -0.84554903      -0.87138121
Al       7.02500000      21.20000000      17.35497327       0.34407909      -0.34407909      -1.01038635
Al       7.02500000      23.22500000      14.83442366       0.69209789      -0.35447419       0.13352497
Al       9.05000000       5.00000000       5.00000000      -0.04171241      -0.17810134      -0.39628123
Al       9.05000000       7.02500000       7.02500000       0.01441985       0.37887663       1.70662422
Al      11.07500000       5.00000000       7.02500000       0.02236323      -0.07670257       1.57932914
Al      11.07500000       7.02500000       5.00000000      -0.02446073       0.31470618      -0.85364106
Al       9.14141538       5.08561683       9.51229181       0.01234706       0.00980570       0.00556650
Al       9.26902639       7.33510638      12.34816855       0.01744069       0.02019079       0.02347367
Al      11.04108785       5.15725368      12.17642665      -0.00540770      -0.00686193       0.02676578
Al      10.86141763       7.43818866       9.63927551       0.00543266       0.04910051       0.01981948
Al       9.05000000       5.00000000      14.83442366       0.13129601       0.25223755       0.03063889
Al       9.05000000       7.02500000      17.35497327      -0.04093453       0.35027500      -0.97688381
Al      11.07500000       5.00000000      17.35497327      -0.02051893       0.20650858      -0.99924404
Al      11.07500000       7.02500000      14.83442366       0.00879831       0.39678669       0.10181871
Al       9.05000000       9.05000000       5.00000000      -0.05038449      -0.04969942      -0.92133546
Al       9.05000000      11.07500000       7.02500000      -0.01495448       0.07110702       1.68651008
Al      11.07500000       9.05000000       7.02500000       0.01856799       0.05722511       1.99181282
Al      11.07500000      11.07500000       5.00000000      -0.02204084      -0.02073599      -0.91366633
Al       9.22285655       9.76115860       9.69642086      -0.00193429       0.01435432       0.01580238
Al       9.13993940      11.44394896      12.34915046      -0.01843135       0.02558061       0.02480957
Al      11.08757324       9.43063806      12.22014160      -0.03431140       0.02139174       0.03540801
Al      11.69756874      10.88167108       9.62099183       0.03330839      -0.02363347       0.01260585
Al       9.05000000       9.05000000      14.83442366       0.02272427       0.19253364       0.11116949
Al       9.05000000      11.07500000      17.35497327      -0.04468461      -0.01249275      -0.92515752
Al      11.07500000       9.05000000      17.35497327      -0.02049971      -0.04311421      -0.91865148
Al      11.07500000      11.07500000      14.83442366       0.09843335       0.07021280       0.04563843
Al       9.05000000      13.10000000       5.00000000      -0.05230433      -0.00793506      -0.91152582
Al       9.05000000      15.12500000       7.02500000       0.01974706      -0.06745920       1.71522276
Al      11.07500000      13.10000000       7.02500000       0.00963613      -0.05823523       1.72313224
Al      11.07500000      15.12500000       5.00000000      -0.02286223       0.00828618      -0.88887436
Al       9.52605585      12.79015826       9.61658492       0.02566955       0.01092501       0.02450124
Al       9.49326805      14.81306474      12.20306132      -0.00123988      -0.00229186       0.04673035
Al      11.56111741      12.87635421      12.15698686       0.00672464      -0.00323205       0.04375645
Al      10.93871323      15.27022315       9.50746306      -0.01721524       0.02637091       0.02184302
Al       9.05000000      13.10000000      14.83442366       0.01960015       0.14665932       0.21580123
Al       9.05000000      15.12500000      17.35497327      -0.04672368       0.00744009      -0.91426494
Al      11.07500000      13.10000000      17.35497327      -0.02367635      -0.00362306      -0.91300938
Al      11.07500000      15.12500000      14.83442366       0.02158195       0.00804338      -0.00698236
Al       9.05000000      17.15000000       5.00000000      -0.05135504       0.02592766      -0.87702279
Al       9.05000000      19.17500000       7.02500000      -0.07318822       0.07318822       1.57842990
Al      11.07500000      17.15000000       7.02500000      -0.07720074       0.07720074       1.70230363
Al      11.07500000      19.17500000       5.00000000      -0.02592766       0.05135504      -0.87702279
Al       8.99480540      17.22710679       9.45560729      -0.00728751       0.00818223       0.02408240
Al      10.63558476      17.58941524      12.11201207       0.00809497      -0.00809497       0.01910462
Al      12.61901835      15.60598165      12.13689163       0.02815877      -0.02815877       0.04140805
Al      10.99789321      19.23019460       9.45560729      -0.00818223       0.00728751       0.02408240
Al       9.05000000      17.15000000      14.83442366       0.01339846       0.03436079      -0.04277012
Al       9.05000000      19.17500000      17.35497327      -0.04433534       0.04433534      -0.91128831
Al      11.07500000      17.15000000      17.35497327      -0.02118072       0.02118072      -0.90661442
Al      11.07500000      19.17500000      14.83442366      -0.03436079      -0.01339846      -0.04277012
Al       9.05000000      21.20000000       5.00000000      -0.05237058      -0.31881914      -0.80778861
Al       9.05000000      23.22500000       7.02500000       0.21938901       0.15651832       1.44653528
Al      11.07500000      21.20000000       7.02500000       0.06818357      -0.41990008       1.62914858
Al      11.07500000      23.22500000       5.00000000      -0.01612026       0.17067697      -0.43070529
Al       9.04438972      21.12485436       9.48814632      -0.01791904       0.04145304       0.01204273
Al       9.37066497      22.71889076      12.12811352      -0.00152523      -0.00277652       0.02122209
Al      11.36563516      20.67014094      12.14334261      -0.00147839       0.00365171       0.04229224
Al      11.36662097      22.78193553       9.57865222      -0.01017103      -0.01321846       0.02581813
Al       9.05000000      21.20000000      14.83442366      -0.01776937      -0.38454727       0.01996042
Al       9.05000000      23.22500000      17.35497327      -0.03721807      -0.22278464      -0.98612367
Al      11.07500000      21.20000000      17.35497327      -0.01755962      -0.34942516      -0.96522444
Al      11.07500000      23.22500000      14.83442366      -0.04816638      -0.30318292       0.01473710
Al      13.10000000       5.00000000       5.00000000      -0.01081463      -0.16473495      -0.45516611
Al      13.10000000       7.02500000       7.02500000      -0.00540765       0.42610557       1.73883945
Al      15.12500000       5.00000000       7.02500000       0.07880417      -0.22037021       1.72982102
Al      15.12500000       7.02500000       5.00000000       0.00839278       0.31867496      -0.83471425
Al      12.97079974       5.48933333       9.64137392       0.00414890      -0.01138585       0.00506023
Al      12.94970583       7.31688009      12.30988774      -0.02466582       0.01638095       0.03058332
Al      15.10594531       5.39969315      12.17272358      -0.02186973       0.00136235       0.02821709
Al      15.53190342       6.89492317       9.53129954       0.02550306      -0.02626847      -0.00012589
Al      13.10000000       5.00000000      14.83442366      -0.04408060       0.28230008      -0.21910659
Al      13.10000000       7.02500000      17.35497327      -0.00948550       0.35011853      -0.97101825
Al      15.12500000       5.00000000      17.35497327       0.00189020       0.20909940      -0.98469720
Al      15.12500000       7.02500000      14.83442366       0.04084833       0.43019546       0.01148000
Al      13.10000000       9.05000000       5.00000000      -0.00448245      -0.05223308      -0.91283576
Al      13.10000000      11.07500000       7.02500000       0.08312963      -0.05022035       1.56076671
Al      15.12500000       9.05000000       7.02500000      -0.01975665      -0.03913191       1.78874616
Al      15.12500000      11.07500000       5.00000000       0.00532295      -0.02198216      -0.89713899
Al      13.45657884       8.73830456       9.62483962       0.01851457      -0.00881479       0.02159224
Al      13.52420212      10.87709896      12.26333799       0.01122151      -0.01857470       0.02332449
Al      15.41240838       8.84443560      12.20660146      -0.01582714       0.00142902       0.03731571
Al      14.88971800      11.28880732       9.52109949      -0.01105865      -0.00655162       0.02068751
Al      13.10000000       9.05000000      14.83442366       0.03446031       0.05627764       0.05183249
Al      13.10000000      11.07500000      17.35497327      -0.00914873      -0.01721104      -0.91469674
Al      15.12500000       9.05000000      17.35497327       0.00047485      -0.04339326      -0.91141547
Al      15.12500000      11.07500000      14.83442366       0.09478517      -0.00576778       0.08006129
Al      13.10000000      13.10000000       5.00000000      -0.00722006      -0.00436152      -0.88238840
Al      13.10000000      15.12500000       7.02500000      -0.18731383       0.18731383       1.56618798
Al      15.12500000      13.10000000       7.02500000      -0.10966035       0.10966035       1.72783378
Al      15.12500000      15.12500000       5.00000000       0.00436152       0.00722006      -0.88238840
Al      12.93823720      13.33702239       9.46386651      -0.01573923       0.01037040       0.02250179
Al      14.61168859      13.61331141      12.09364182       0.01212976      -0.01212976       0.04634033
Al      14.88797761      15.28676280       9.46386651      -0.01037040       0.01573923       0.02250179
Al      13.10000000      13.10000000      14.83442366       0.04370383       0.01730598      -0.04136426
Al      13.10000000      15.12500000      17.35497327      -0.01011183       0.01011183      -0.90504000
Al      15.12500000      13.10000000      17.35497327       0.00285643      -0.00285643      -0.90434158
Al      15.12500000      15.12500000      14.83442366      -0.01730598      -0.04370383      -0.04136426
Al      13.10000000      17.15000000       5.00000000      -0.00828618       0.02286223      -0.88887436
Al      13.10000000      19.17500000       7.02500000       0.06745920      -0.01974706       1.71522276
Al      15.12500000      17.15000000       7.02500000       0.05823523      -0.00963613       1.72313224
Al      15.12500000      19.17500000       5.00000000       0.00793506       0.05230433      -0.91152582
Al      12.95477685      17.28628677       9.50746306      -0.02637091       0.01721524       0.02184302
Al      13.41193526      18.73173195      12.20306132       0.00229186       0.00123988       0.04673035
Al      15.34864579      16.66388259      12.15698686       0.00323205      -0.00672464       0.04375645
Al      15.43484174      18.69894415       9.61658492      -0.01092501      -0.02566955       0.02450124
Al      13.10000000      17.15000000      14.83442366      -0.00804338      -0.02158195      -0.00698236
Al      13.10000000      19.17500000      17.35497327      -0.00744009       0.04672368      -0.91426494
Al      15.12500000      17.15000000      17.35497327       0.00362306       0.02367635      -0.91300938
Al      15.12500000      19.17500000      14.83442366      -0.14665932      -0.01960015       0.21580123
Al      13.10000000      21.20000000       5.00000000      -0.00804109      -0.31622660      -0.84514463
Al      13.10000000      23.22500000       7.02500000       0.01526201       0.10729902       1.39999388
Al      15.12500000      21.20000000       7.02500000      -0.06081939      -0.34862559       1.82699925
Al      15.12500000      23.22500000       5.00000000      -0.00072169       0.18615033      -0.41568815
Al      13.42020044      20.72116122       9.62527511       0.00420754      -0.02299040       0.02068075
Al      12.88792433      23.09837371      12.26866737      -0.01367712       0.01288096       0.03802930
Al      14.96196130      21.17465607      12.24622818      -0.02638278      -0.00018943       0.06068281
Al      14.81453131      23.23099849       9.62625340      -0.02152382       0.01127407       0.02230386
Al      13.10000000      21.20000000      14.83442366      -0.03579736      -0.45243639      -0.04451832
Al      13.10000000      23.22500000      17.35497327      -0.00975141      -0.20620499      -1.01118829
Al      15.12500000      21.20000000      17.35497327       0.00092288      -0.35074802      -0.97416792
Al      15.12500000      23.22500000      14.83442366      -0.04358697      -0.19930707      -0.20131817
Al      17.15000000       5.00000000       5.00000000       0.02730979      -0.18282623      -0.41387157
Al      17.15000000       7.02500000       7.02500000       0.10571573       0.27116434       1.57315287
Al      19.17500000       5.00000000       7.02500000      -0.10493237      -0.12948262       1.28608869
Al      19.17500000       7.02500000       5.00000000       0.04382174       0.31863762      -0.82586997
Al      17.51778547       4.89407698       9.68469961       0.00177226      -0.01672501       0.01809737
Al      17.48323447       7.02463819      12.23523389       0.01237036      -0.00618502       0.02583297
Al      19.40762166       5.02328906      12.31717842       0.01217415       0.00029632       0.02873969
Al      18.87238725       7.37398946       9.51092562       0.01528243       0.01791670       0.01242604
Al      17.15000000       5.00000000      14.83442366       0.06738450       0.21313547      -0.24082761
Al      17.15000000       7.02500000      17.35497327       0.01394765       0.34815718      -0.96288600
Al      19.17500000       5.00000000      17.35497327       0.04018939       0.20133471      -1.01653156
Al      19.17500000       7.02500000      14.83442366       0.12247685       0.37893216       0.07894545
Al      17.15000000       9.05000000       5.00000000       0.01845743      -0.05318839      -0.89284307
Al      17.15000000      11.07500000       7.02500000      -0.13360225       0.13360225       1.72584461
Al      19.17500000       9.05000000       7.02500000      -0.16240072       0.16240072       1.61053501
Al      19.17500000      11.07500000       5.00000000       0.05318839      -0.01845743      -0.89284307
Al      16.89577194       9.34351215       9.53828572      -0.00478456       0.01560319       0.01356421
Al      16.59156477      11.63343523      12.12290780       0.00829349      -0.00829349       0.04519462
Al      18.52886995       9.69613005      12.12632510       0.03946099      -0.03946099       0.02177860
Al      18.88148785      11.32922806       9.53828572      -0.01560319       0.00478456       0.01356421
Al      17.15000000       9.05000000      14.83442366       0.00635064      -0.01443152      -0.00792335
Al      17.15000000      11.07500000      17.35497327       0.01486806      -0.01486806      -0.90049292
Al      19.17500000       9.05000000      17.35497327       0.04075233      -0.04075233      -0.90014466
Al      19.17500000      11.07500000      14.83442366       0.01443152      -0.00635064      -0.00792335
Al      17.15000000      13.10000000       5.00000000       0.02198216      -0.00532295      -0.89713899
Al      17.15000000      15.12500000       7.02500000       0.05022035      -0.08312963       1.56076671
Al      19.17500000      13.10000000       7.02500000       0.03913191       0.01975665       1.78874616
Al      19.17500000      15.12500000       5.00000000       0.05223308       0.00448245      -0.91283576
Al      16.93619268      13.33528200       9.52109949       0.00655162       0.01105865       0.02068751
Al      17.34790104      14.70079788      12.26333799       0.01857470      -0.01122151       0.02332449
Al      19.38056440      12.81259162      12.20660146      -0.00142902       0.01582714       0.03731571
Al      19.48669544      14.76842116       9.62483962       0.00881479      -0.01851457       0.02159224
Al      17.15000000      13.10000000      14.83442366       0.00576778      -0.09478517       0.08006129
Al      17.15000000      15.12500000      17.35497327       0.01721104       0.00914873      -0.91469674
Al      19.17500000      13.10000000      17.35497327       0.04339326      -0.00047485      -0.91141547
Al      19.17500000      15.12500000      14.83442366      -0.05627764      -0.03446031       0.05183249
Al      17.15000000      17.15000000       5.00000000       0.02073599       0.02204084      -0.91366633
Al      17.15000000      19.17500000       7.02500000      -0.07110702       0.01495448       1.68651008
Al      19.17500000      17.15000000       7.02500000      -0.05722511      -0.01856799       1.99181282
Al      19.17500000      19.17500000       5.00000000       0.04969942       0.05038449      -0.92133546
Al      17.34332892      16.52743126       9.62099183       0.02363347      -0.03330839       0.01260585
Al      16.78105104      19.08506060      12.34915046      -0.02558061       0.01843135       0.02480957
Al      18.79436194      17.13742676      12.22014160      -0.02139174       0.03431140       0.03540801
Al      18.46384140      19.00214345       9.69642086      -0.01435432       0.00193429       0.01580238
Al      17.15000000      17.15000000      14.83442366      -0.07021280      -0.09843335       0.04563843
Al      17.15000000      19.17500000      17.35497327       0.01249275       0.04468461      -0.92515752
Al      19.17500000      17.15000000      17.35497327       0.04311421       0.02049971      -0.91865148
Al      19.17500000      19.17500000      14.83442366      -0.19253364      -0.02272427       0.11116949
Al      17.15000000      21.20000000       5.00000000       0.01932717      -0.31688834      -0.84661255
Al      17.15000000      23.22500000       7.02500000      -0.08838983       0.21340619       1.70828100
Al      19.17500000      21.20000000       7.02500000      -0.05304098      -0.49548182       1.92079034
Al      19.17500000      23.22500000       5.00000000       0.04333746       0.16543739      -0.42228250
Al      16.84910292      21.24493808       9.57627305      -0.03639254      -0.00933276       0.02300725
Al      17.12395098      23.08540377      12.18321366      -0.00466392      -0.00457910       0.02210453
Al      18.87199033      20.87144460      12.18519564      -0.01238784      -0.03032745       0.03202258
Al      19.20483197      22.94389584       9.56596638      -0.01230687      -0.03569123       0.00968519
Al      17.15000000      21.20000000      14.83442366      -0.06917007      -0.34954806      -0.07722501
Al      17.15000000      23.22500000      17.35497327       0.01299865      -0.20706286      -0.99854694
Al      19.17500000      21.20000000      17.35497327       0.03991133      -0.35088181      -0.96691811
Al      19.17500000      23.22500000      14.83442366      -0.15658783      -0.27409852      -0.01189525
Al      21.20000000       5.00000000       5.00000000      -0.45444282      -0.06750881      -0.32296422
Al      21.20000000       7.02500000       7.02500000      -0.52962980       0.52962980       1.63054515
Al      23.22500000       5.00000000       7.02500000      -0.61289739       0.61289739       1.23310804
Al      23.22500000       7.02500000       5.00000000       0.06750881       0.45444282      -0.32296422
Al      20.81931027       5.35681303       9.54560325       0.01476934       0.00256034       0.01660413
Al      20.47515329       7.74984671      12.09094267       0.01578880      -0.01578880       0.00941344
Al      22.40928351       5.81571649      12.15088906       0.02108844      -0.02108844       0.00988619
Al      22.86818697       7.40568973       9.54560325      -0.00256034      -0.01476934       0.01660413
Al      21.20000000       5.00000000      14.83442366      -0.49596085       0.34113924       0.34243224
Al      21.20000000       7.02500000      17.35497327      -0.34158326       0.34158326      -1.00516152
Al      23.22500000       5.00000000      17.35497327      -0.82950639       0.82950639      -0.92539026
Al      23.22500000       7.02500000      14.83442366      -0.34113924       0.49596085       0.34243224
Al      21.20000000       9.05000000       5.00000000      -0.31863762      -0.04382174      -0.82586997
Al      21.20000000      11.07500000       7.02500000      -0.27116434      -0.10571573       1.57315287
Al      23.22500000       9.05000000       7.02500000       0.12948262       0.10493237       1.28608869
Al      23.22500000      11.07500000       5.00000000       0.18282623      -0.02730979      -0.41387157
Al      20.85101054       9.35261275       9.51092562      -0.01791670      -0.01528243       0.01242604
Al      21.20036181      10.74176553      12.23523389       0.00618502      -0.01237036       0.02583297
Al      23.20171094       8.81737834      12.31717842      -0.00029632      -0.01217415       0.02873969
Al      23.33092302      10.70721453       9.68469961       0.01672501      -0.00177226       0.01809737
Al      21.20000000       9.05000000      14.83442366      -0.37893216      -0.12247685       0.07894545
Al      21.20000000      11.07500000      17.35497327      -0.34815718      -0.01394765      -0.96288600
Al      23.22500000       9.05000000      17.35497327      -0.20133471      -0.04018939      -1.01653156
Al      23.22500000      11.07500000      14.83442366      -0.21313547      -0.06738450      -0.24082761
Al      21.20000000      13.10000000       5.00000000      -0.31867496      -0.00839278      -0.83471425
Al      21.20000000      15.12500000       7.02500000      -0.42610557       0.00540765       1.73883945
Al      23.22500000      13.10000000       7.02500000       0.22037021      -0.07880417       1.72982102
Al      23.22500000      15.12500000       5.00000000       0.16473495       0.01081463      -0.45516611
Al      21.33007683      12.69309658       9.53129954       0.02626847      -0.02550306      -0.00012589
Al      20.90811991      15.27529417      12.30988774      -0.01638095       0.02466582       0.03058332
Al      22.82530685      13.11905469      12.17272358      -0.00136235       0.02186973       0.02821709
Al      22.73566667      15.25420026       9.64137392       0.01138585      -0.00414890       0.00506023
Al      21.20000000      13.10000000      14.83442366      -0.43019546      -0.04084833       0.01148000
Al      21.20000000      15.12500000      17.35497327      -0.35011853       0.00948550      -0.97101825
Al      23.22500000      13.10000000      17.35497327      -0.20909940      -0.00189020      -0.98469720
Al      23.22500000      15.12500000      14.83442366      -0.28230008       0.04408060      -0.21910659
Al      21.20000000      17.15000000       5.00000000      -0.31470618       0.02446073      -0.85364106
Al      21.20000000      19.17500000       7.02500000      -0.37887663      -0.01441985       1.70662422
Al      23.22500000      17.15000000       7.02500000       0.07670257      -0.02236323       1.57932914
Al      23.22500000      19.17500000       5.00000000       0.17810134       0.04171241      -0.39628123
Al      20.78681134      17.36358237       9.63927551      -0.04910051      -0.00543266       0.01981948
Al      20.88989362      18.95597361      12.34816855      -0.02019079      -0.01744069       0.02347367
Al      23.06774632      17.18391215      12.17642665       0.00686193       0.00540770       0.02676578
Al      23.13938317      19.08358462       9.51229181      -0.00980570      -0.01234706       0.00556650
Al      21.20000000      17.15000000      14.83442366      -0.39678669      -0.00879831       0.10181871