299
Lattice="28.224999999999998 0.0 0.0 0.0 28.224999999999998 0.0 0.0 0.0 20.125" Properties=species:S:1:pos:R:3 energy=-16367.601506519506 pbc="T T T"
Al       5.00000000       5.00000000       5.00000000
Al       5.00000000       7.02500000       7.02500000
Al       7.02500000       5.00000000       7.02500000
Al       7.02500000       7.02500000       5.00000000
Al       6.97126183       7.07928728       9.15143843
Al       6.00279576       7.70904865      13.52371078
Al       7.94676785       6.32950562      11.72258129
Al       9.94648913       8.50251364      11.61272741
Al       5.00000000       5.00000000      16.05267203
Al       5.00000000       7.02500000      18.92129261
Al       7.02500000       5.00000000      18.92129261
Al       7.02500000       7.02500000      16.05267203
Al       5.00000000       9.05000000       5.00000000
Al       5.00000000      11.07500000       7.02500000
Al       7.02500000       9.05000000       7.02500000
Al       7.02500000      11.07500000       5.00000000
Al       6.78374292       9.23536610      11.12072570
Al       5.57201829      11.17303322      13.43570210
Al       8.02590309       9.72458003      13.59245475
Al       7.00627849      11.01878664       9.00692370
Al       5.00000000       9.05000000      16.05267203
Al       5.00000000      11.07500000      18.92129261
Al       7.02500000       9.05000000      18.92129261
Al       7.02500000      11.07500000      16.05267203
Al       5.00000000      13.10000000       5.00000000
Al       5.00000000      15.12500000       7.02500000
Al       7.02500000      13.10000000       7.02500000
Al       7.02500000      15.12500000       5.00000000
Al       6.52841658      12.85472713      10.98367812
Al       6.21319299      14.68360118      13.24278717
Al       8.14499111      12.59361159      13.51510110
Al       9.03852088      14.62354534      11.35986723
Al       5.00000000      13.10000000      16.05267203
Al       5.00000000      15.12500000      18.92129261
Al       7.02500000      13.10000000      18.92129261
Al       7.02500000      15.12500000      16.05267203
Al       5.00000000      17.15000000       5.00000000
Al       5.00000000      19.17500000       7.02500000
Al       7.02500000      17.15000000       7.02500000
Al       7.02500000      19.17500000       5.00000000
Al       6.88212460      15.40905009       9.47594028
Al       6.91516283      17.42974471      13.84391496
Al       9.10008238      15.45007463      13.90032636
Al       8.46786256      17.55344958      11.56147295
Al       5.00000000      17.15000000      16.05267203
Al       5.00000000      19.17500000      18.92129261
Al       7.02500000      17.15000000      18.92129261
Al       7.02500000      19.17500000      16.05267203
Al       5.00000000      21.20000000       5.00000000
Al       5.00000000      23.22500000       7.02500000
Al       7.02500000      21.20000000       7.02500000
Al       7.02500000      23.22500000       5.00000000
Al       7.08542190      19.03578912       9.37704949
Al       7.98182594      20.24317465      13.24351072
Al      10.04501951      18.17998080      13.76502818
Al       9.18921083      21.13957841       9.37704937
Al       5.00000000      21.20000000      16.05267203
Al       5.00000000      23.22500000      18.92129261
Al       7.02500000      21.20000000      18.92129261
Al       7.02500000      23.22500000      16.05267203
Al       9.05000000       5.00000000       5.00000000
Al       9.05000000       7.02500000       7.02500000
Al      11.07500000       5.00000000       7.02500000
Al      11.07500000       7.02500000       5.00000000
Al       9.96643281       6.13512297       9.56597348
Al       9.24517980       7.15556670      13.99367283
Al      11.34966048       5.89543838      12.27436346
Al      11.94506410       8.22427543       9.59628568
Al       9.05000000       5.00000000      16.05267203
Al       9.05000000       7.02500000      18.92129261
Al      11.07500000       5.00000000      18.92129261
Al      11.07500000       7.02500000      16.05267203
Al       9.05000000       9.05000000       5.00000000
Al       9.05000000      11.07500000       7.02500000
Al      11.07500000       9.05000000       7.02500000
Al      11.07500000      11.07500000       5.00000000
Al       9.05265376       9.02600500       9.09981362
Al       9.03308443      11.26749556      11.17424255
Al      10.70350928      10.58650809      13.35205232
Al      11.11362641      11.04142652       9.20361832
Al       9.05000000       9.05000000      16.05267203
Al       9.05000000      11.07500000      18.92129261
Al      11.07500000       9.05000000      18.92129261
Al      11.07500000      11.07500000      16.05267203
Al       9.05000000      13.10000000       5.00000000
Al       9.05000000      15.12500000       7.02500000
Al      11.07500000      13.10000000       7.02500000
Al      11.07500000      15.12500000       5.00000000
Al       9.02956683      13.13048655       9.06676697
Al      10.94094279      13.32762421      13.94232792
Al      11.58272635      13.04325745      11.37667249
Al      11.15968007      15.07673491       9.29762909
Al       9.05000000      13.10000000      16.05267203
Al       9.05000000      15.12500000      18.92129261
Al      11.07500000      13.10000000      18.92129261
Al      11.07500000      15.12500000      16.05267203
Al       9.05000000      17.15000000       5.00000000
Al       9.05000000      19.17500000       7.02500000
Al      11.07500000      17.15000000       7.02500000
Al      11.07500000      19.17500000       5.00000000
Al       9.21710618      17.03662992       9.07915422
Al      11.61006756      16.61493275      11.88426236
Al      13.40870853      14.81629237      13.48146404
Al      11.18837000      19.00789450       9.07915410
Al       9.05000000      17.15000000      16.05267203
Al       9.05000000      19.17500000      18.92129261
Al      11.07500000      17.15000000      18.92129261
Al      11.07500000      19.17500000      16.05267203
Al       9.05000000      21.20000000       5.00000000
Al       9.05000000      23.22500000       7.02500000
Al      11.07500000      21.20000000       7.02500000
Al      11.07500000      23.22500000       5.00000000
Al      10.67155036      19.75713786      11.56147289
Al      10.79525652      21.30983653      13.84391543
Al      12.77492664      19.12491581      13.90032654
Al      12.81595038      21.34287600       9.47593997
Al       9.05000000      21.20000000      16.05267203
Al       9.05000000      23.22500000      18.92129261
Al      11.07500000      21.20000000      18.92129261
Al      11.07500000      23.22500000      16.05267203
Al      13.10000000       5.00000000       5.00000000
Al      13.10000000       7.02500000       7.02500000
Al      15.12500000       5.00000000       7.02500000
Al      15.12500000       7.02500000       5.00000000
Al      13.18912886       5.57787456       9.64214705
Al      12.34796702       8.30574098      13.35242302
Al      14.43726883       6.27969969      12.89232617
Al      14.62478284       8.09633203      10.25111349
Al      13.10000000       5.00000000      16.05267203
Al      13.10000000       7.02500000      18.92129261
Al      15.12500000       5.00000000      18.92129261
Al      15.12500000       7.02500000      16.05267203
Al      13.10000000       9.05000000       5.00000000
Al      13.10000000      11.07500000       7.02500000
Al      15.12500000       9.05000000       7.02500000
Al      15.12500000      11.07500000       5.00000000
Al      13.04796059      10.39117255      11.21246824
Al      13.38120531      11.59641486      13.68611940
Al      15.07719386       9.10478056      13.84666896
Al      15.06472208      11.05380149       9.13760633
Al      13.10000000       9.05000000      16.05267203
Al      13.10000000      11.07500000      18.92129261
Al      15.12500000       9.05000000      18.92129261
Al      15.12500000      11.07500000      16.05267203
Al      13.10000000      13.10000000       5.00000000
Al      13.10000000      15.12500000       7.02500000
Al      15.12500000      13.10000000       7.02500000
Al      15.12500000      15.12500000       5.00000000
Al      13.15772170      13.09358295       9.12972375
Al      14.97751064      13.24748622      11.42858207
Al      15.13141487      15.06727720       9.12972528
Al      13.10000000      13.10000000      16.05267203
Al      13.10000000      15.12500000      18.92129261
Al      15.12500000      13.10000000      18.92129261
Al      15.12500000      15.12500000      16.05267203
Al      13.10000000      17.15000000       5.00000000
Al      13.10000000      19.17500000       7.02500000
Al      15.12500000      17.15000000       7.02500000
Al      15.12500000      19.17500000       5.00000000
Al      13.14826496      17.06532114       9.29762819
Al      14.89737991      17.28405630      13.94232911
Al      15.18173931      16.64227483      11.37667292
Al      15.09451332      19.19543409       9.06676731
Al      13.10000000      17.15000000      16.05267203
Al      13.10000000      19.17500000      18.92129261
Al      15.12500000      17.15000000      18.92129261
Al      15.12500000      19.17500000      16.05267203
Al      13.10000000      21.20000000       5.00000000
Al      13.10000000      23.22500000       7.02500000
Al      15.12500000      21.20000000       7.02500000
Al      15.12500000      23.22500000       5.00000000
Al      13.60145396      19.18648026      11.35986704
Al      13.54139989      22.01180624      13.24278747
Al      15.63138910      20.08000768      13.51510109
Al      15.37027381      21.69658242      10.98367860
Al      13.10000000      21.20000000      16.05267203
Al      13.10000000      23.22500000      18.92129261
Al      15.12500000      21.20000000      18.92129261
Al      15.12500000      23.22500000      16.05267203
Al      17.15000000       5.00000000       5.00000000
Al      17.15000000       7.02500000       7.02500000
Al      19.17500000       5.00000000       7.02500000
Al      19.17500000       7.02500000       5.00000000
Al      16.43099813       5.94891629       9.76114229
Al      17.03630968       7.57211252      12.33221459
Al      18.63892247       5.56363256      13.47926298
Al      17.15629043       8.96142264       9.14746828
Al      17.15000000       5.00000000      16.05267203
Al      17.15000000       7.02500000      18.92129261
Al      19.17500000       5.00000000      18.92129261
Al      19.17500000       7.02500000      16.05267203
Al      17.15000000       9.05000000       5.00000000
Al      17.15000000      11.07500000       7.02500000
Al      19.17500000       9.05000000       7.02500000
Al      19.17500000      11.07500000       5.00000000
Al      16.09044101      10.21724321      11.52714549
Al      16.19721547      12.02777785      13.70802359
Al      18.23877844       9.98623291      13.67214755
Al      18.00772397      12.13455748      11.52713767
Al      17.15000000       9.05000000      16.05267203
Al      17.15000000      11.07500000      18.92129261
Al      19.17500000       9.05000000      18.92129261
Al      19.17500000      11.07500000      16.05267203
Al      17.15000000      13.10000000       5.00000000
Al      17.15000000      15.12500000       7.02500000
Al      19.17500000      13.10000000       7.02500000
Al      19.17500000      15.12500000       5.00000000
Al      17.17120725      13.16028990       9.13759844
Al      16.62858654      14.84378875      13.68612016
Al      19.12022138      13.14779151      13.84666058
Al      17.83381792      15.17704220      11.21246745
Al      17.15000000      13.10000000      16.05267203
Al      17.15000000      15.12500000      18.92129261
Al      19.17500000      13.10000000      18.92129261
Al      19.17500000      15.12500000      16.05267203
Al      17.15000000      17.15000000       5.00000000
Al      17.15000000      19.17500000       7.02500000
Al      19.17500000      17.15000000       7.02500000
Al      19.17500000      19.17500000       5.00000000
Al      17.18356994      17.11137446       9.20361637
Al      16.95750493      19.19191251      11.17424393
Al      17.63849776      17.52148544      13.35205445
Al      19.19899432      19.17234468       9.09981418
Al      17.15000000      17.15000000      16.05267203
Al      17.15000000      19.17500000      18.92129261
Al      19.17500000      17.15000000      18.92129261
Al      19.17500000      19.17500000      16.05267203
Al      17.15000000      21.20000000       5.00000000
Al      17.15000000      23.22500000       7.02500000
Al      19.17500000      21.20000000       7.02500000
Al      19.17500000      23.22500000       5.00000000
Al      17.20621355      21.21872095       9.00692381
Al      17.05196768      22.65298054      13.43570210
Al      18.50041991      20.19909444      13.59245372
Al      18.98963411      21.44125480      11.12072548
Al      17.15000000      21.20000000      16.05267203
Al      17.15000000      23.22500000      18.92129261
Al      19.17500000      21.20000000      18.92129261
Al      19.17500000      23.22500000      16.05267203
Al      21.20000000       5.00000000       5.00000000
Al      21.20000000       7.02500000       7.02500000
Al      23.22500000       5.00000000       7.02500000
Al      23.22500000       7.02500000       5.00000000
Al      19.26179213       6.83994422       9.45914197
Al      19.07407583       9.15089899      11.16104497
Al      20.35082546       7.87417873      13.41907670
Al      21.38505283       8.96321630       9.45915331
Al      21.20000000       5.00000000      16.05267203
Al      21.20000000       7.02500000      18.92129261
Al      23.22500000       5.00000000      18.92129261
Al      23.22500000       7.02500000      16.05267203
Al      21.20000000       9.05000000       5.00000000
Al      21.20000000      11.07500000       7.02500000
Al      23.22500000       9.05000000       7.02500000
Al      23.22500000      11.07500000       5.00000000
Al      19.26357864      11.06871129       9.14747651
Al      20.65286639      11.18869424      12.33214595
Al      22.66133910       9.58612581      13.47925379
Al      22.27609295      11.79401384       9.76112350
Al      21.20000000       9.05000000      16.05267203
Al      21.20000000      11.07500000      18.92129261
Al      23.22500000       9.05000000      18.92129261
Al      23.22500000      11.07500000      16.05267203
Al      21.20000000      13.10000000       5.00000000
Al      21.20000000      15.12500000       7.02500000
Al      23.22500000      13.10000000       7.02500000
Al      23.22500000      15.12500000       5.00000000
Al      20.12866735      13.60021727      10.25114636
Al      19.91926089      15.87701539      13.35241501
Al      21.94531542      13.78770819      12.89235159
Al      22.64712060      15.03586904       9.64215005
Al      21.20000000      13.10000000      16.05267203
Al      21.20000000      15.12500000      18.92129261
Al      23.22500000      13.10000000      18.92129261
Al      23.22500000      15.12500000      16.05267203
Al      21.20000000      17.15000000       5.00000000
Al      21.20000000      19.17500000       7.02500000
Al      23.22500000      17.15000000       7.02500000
Al      23.22500000      19.17500000       5.00000000
Al      20.00071554      16.27992602       9.59627986
Al      21.06943203      18.97981613      13.99367127
Al      22.32956214      16.87532916      12.27436715
Al      22.08987077      18.25855855       9.56597422
Al      21.20000000      17.15000000      16.05267203
Al      21.20000000      19.17500000      18.92129261
Al      23.22500000      17.15000000      18.92129261
Al      23.22500000      19.17500000      16.05267203
Al      21.20000000      21.20000000       5.00000000
Al      21.20000000      23.22500000       7.02500000
Al      23.22500000      21.20000000       7.02500000
Al      23.22500000      23.22500000       5.00000000
Al      19.72248681      18.27850171      11.61272567
Al      20.51595146      22.22220219      13.52371033
Al      21.89549259      20.27822764      11.72257959
Al      21.14571287      21.25373684       9.15143787
Al      21.20000000      21.20000000      16.05267203
Al      21.20000000      23.22500000      18.92129261
Al      23.22500000      21.20000000      18.92129261
Al      23.22500000      23.22500000      16.05267203
