299
Lattice="28.224999999999998 0.0 0.0 0.0 28.224999999999998 0.0 0.0 0.0 20.125" Properties=species:S:1:pos:R:3 energy=-16469.54473627239 pbc="T T T"
Al       5.00000000       5.00000000       5.00000000
Al       5.00000000       7.02500000       7.02500000
Al       7.02500000       5.00000000       7.02500000
Al       7.02500000       7.02500000       5.00000000
Al       4.97724067       4.97804147       9.12701601
Al       4.87672793       7.05375230      11.17993947
Al       7.05094664       4.87358912      11.17976918
Al       7.02689684       7.02825613       9.14555576
Al       5.00000000       5.00000000      13.24245875
Al       5.00000000       7.02500000      15.30816125
Al       7.02500000       5.00000000      15.30816125
Al       7.02500000       7.02500000      13.24245875
Al       5.00000000       9.05000000       5.00000000
Al       5.00000000      11.07500000       7.02500000
Al       7.02500000       9.05000000       7.02500000
Al       7.02500000      11.07500000       5.00000000
Al       4.82353939       9.04990549       9.08634709
Al       4.80899724      11.06601406      11.19002425
Al       7.00043317       9.06482255      11.15787248
Al       6.98105611      11.07968886       9.12881982
Al       5.00000000       9.05000000      13.24245875
Al       5.00000000      11.07500000      15.30816125
Al       7.02500000       9.05000000      15.30816125
Al       7.02500000      11.07500000      13.24245875
Al       5.00000000      13.10000000       5.00000000
Al       5.00000000      15.12500000       7.02500000
Al       7.02500000      13.10000000       7.02500000
Al       7.02500000      15.12500000       5.00000000
Al       4.81078305      13.09655386       9.09574846
Al       4.81352427      15.12657516      11.19024480
Al       6.96438333      13.09440778      11.15449934
Al       6.96735792      15.12651909       9.12746452
Al       5.00000000      13.10000000      13.24245875
Al       5.00000000      15.12500000      15.30816125
Al       7.02500000      13.10000000      15.30816125
Al       7.02500000      15.12500000      13.24245875
Al       5.00000000      17.15000000       5.00000000
Al       5.00000000      19.17500000       7.02500000
Al       7.02500000      17.15000000       7.02500000
Al       7.02500000      19.17500000       5.00000000
Al       4.80958411      17.15781260       9.09597151
Al       4.81786613      19.17777347      11.20074479
Al       6.96720566      17.15453796      11.15657389
Al       7.00001919      19.16317396       9.12979352
Al       5.00000000      17.15000000      13.24245875
Al       5.00000000      19.17500000      15.30816125
Al       7.02500000      17.15000000      15.30816125
Al       7.02500000      19.17500000      13.24245875
Al       5.00000000      21.20000000       5.00000000
Al       5.00000000      23.22500000       7.02500000
Al       7.02500000      21.20000000       7.02500000
Al       7.02500000      23.22500000       5.00000000
Al       4.87787593      21.17168927       9.10807658
Al       4.97902394      23.24597606      11.16083070
Al       7.03477889      21.19022111      11.14181316
Al       7.05331073      23.34712407       9.10807658
Al       5.00000000      21.20000000      13.24245875
Al       5.00000000      23.22500000      15.30816125
Al       7.02500000      21.20000000      15.30816125
Al       7.02500000      23.22500000      13.24245875
Al       9.05000000       5.00000000       5.00000000
Al       9.05000000       7.02500000       7.02500000
Al      11.07500000       5.00000000       7.02500000
Al      11.07500000       7.02500000       5.00000000
Al       9.04783731       4.82008861       9.08552896
Al       9.05327856       6.98849806      11.15695691
Al      11.06790742       4.81128170      11.19007952
Al      11.07194321       6.97014588       9.12660372
Al       9.05000000       5.00000000      13.24245875
Al       9.05000000       7.02500000      15.30816125
Al      11.07500000       5.00000000      15.30816125
Al      11.07500000       7.02500000      13.24245875
Al       9.05000000       9.05000000       5.00000000
Al       9.05000000      11.07500000       7.02500000
Al      11.07500000       9.05000000       7.02500000
Al      11.07500000      11.07500000       5.00000000
Al       9.05488741       9.05754408       9.11646555
Al       9.06087889      11.10261431      11.17573722
Al      11.07404967       9.03090139      11.17174700
Al      11.08968937      11.09367921       9.11940961
Al       9.05000000       9.05000000      13.24245875
Al       9.05000000      11.07500000      15.30816125
Al      11.07500000       9.05000000      15.30816125
Al      11.07500000      11.07500000      13.24245875
Al       9.05000000      13.10000000       5.00000000
Al       9.05000000      15.12500000       7.02500000
Al      11.07500000      13.10000000       7.02500000
Al      11.07500000      15.12500000       5.00000000
Al       9.04894764      13.11341615       9.12227082
Al       9.00887544      15.12493040      11.18067153
Al      11.14689966      13.17390146      11.19841153
Al      11.11674289      15.12390467       9.14612892
Al       9.05000000      13.10000000      13.24245875
Al       9.05000000      15.12500000      15.30816125
Al      11.07500000      13.10000000      15.30816125
Al      11.07500000      15.12500000      13.24245875
Al       9.05000000      17.15000000       5.00000000
Al       9.05000000      19.17500000       7.02500000
Al      11.07500000      17.15000000       7.02500000
Al      11.07500000      19.17500000       5.00000000
Al       9.05405549      17.13337457       9.12207902
Al       9.07356451      19.15143549      11.17346579
Al      11.15049472      17.07450528      11.19817563
Al      11.09162543      19.17094451       9.12207902
Al       9.05000000      17.15000000      13.24245875
Al       9.05000000      19.17500000      15.30816125
Al      11.07500000      17.15000000      15.30816125
Al      11.07500000      19.17500000      13.24245875
Al       9.05000000      21.20000000       5.00000000
Al       9.05000000      23.22500000       7.02500000
Al      11.07500000      21.20000000       7.02500000
Al      11.07500000      23.22500000       5.00000000
Al       9.06182604      21.22498081       9.12979352
Al       9.04722653      23.40713387      11.20074479
Al      11.07046204      21.25779434      11.15657389
Al      11.06718740      23.41541589       9.09597151
Al       9.05000000      21.20000000      13.24245875
Al       9.05000000      23.22500000      15.30816125
Al      11.07500000      21.20000000      15.30816125
Al      11.07500000      23.22500000      13.24245875
Al      13.10000000       5.00000000       5.00000000
Al      13.10000000       7.02500000       7.02500000
Al      15.12500000       5.00000000       7.02500000
Al      15.12500000       7.02500000       5.00000000
Al      13.09801728       4.81315005       9.09626634
Al      13.09834678       6.96981509      11.15538442
Al      15.12750840       4.81249716      11.18975473
Al      15.12859447       6.96721033       9.12836096
Al      13.10000000       5.00000000      13.24245875
Al      13.10000000       7.02500000      15.30816125
Al      15.12500000       5.00000000      15.30816125
Al      15.12500000       7.02500000      13.24245875
Al      13.10000000       9.05000000       5.00000000
Al      13.10000000      11.07500000       7.02500000
Al      15.12500000       9.05000000       7.02500000
Al      15.12500000      11.07500000       5.00000000
Al      13.09985219       9.02865650       9.10947163
Al      13.10111126      11.05077503      11.18318881
Al      15.12926812       9.02551174      11.17114783
Al      15.11089208      11.09070271       9.11893239
Al      13.10000000       9.05000000      13.24245875
Al      13.10000000      11.07500000      15.30816125
Al      15.12500000       9.05000000      15.30816125
Al      15.12500000      11.07500000      13.24245875
Al      13.10000000      13.10000000       5.00000000
Al      13.10000000      15.12500000       7.02500000
Al      15.12500000      13.10000000       7.02500000
Al      15.12500000      15.12500000       5.00000000
Al      13.10074851      13.14382450       9.14536738
Al      15.05159169      13.17340831      11.19843570
Al      15.08117550      15.12425149       9.14536738
Al      13.10000000      13.10000000      13.24245875
Al      13.10000000      15.12500000      15.30816125
Al      15.12500000      13.10000000      15.30816125
Al      15.12500000      15.12500000      13.24245875
Al      13.10000000      17.15000000       5.00000000
Al      13.10000000      19.17500000       7.02500000
Al      15.12500000      17.15000000       7.02500000
Al      15.12500000      19.17500000       5.00000000
Al      13.10109533      17.10825711       9.14612892
Al      13.10006960      19.21612456      11.18067153
Al      15.05109854      17.07810034      11.19841153
Al      15.11158385      19.17605236       9.12227082
Al      13.10000000      17.15000000      13.24245875
Al      13.10000000      19.17500000      15.30816125
Al      15.12500000      17.15000000      15.30816125
Al      15.12500000      19.17500000      13.24245875
Al      13.10000000      21.20000000       5.00000000
Al      13.10000000      23.22500000       7.02500000
Al      15.12500000      21.20000000       7.02500000
Al      15.12500000      23.22500000       5.00000000
Al      13.09848091      21.25764208       9.12746452
Al      13.09842484      23.41147573      11.19024480
Al      15.13059222      21.26061667      11.15449934
Al      15.12844614      23.41421695       9.09574846
Al      13.10000000      21.20000000      13.24245875
Al      13.10000000      23.22500000      15.30816125
Al      15.12500000      21.20000000      15.30816125
Al      15.12500000      23.22500000      13.24245875
Al      17.15000000       5.00000000       5.00000000
Al      17.15000000       7.02500000       7.02500000
Al      19.17500000       5.00000000       7.02500000
Al      19.17500000       7.02500000       5.00000000
Al      17.15819046       4.81075263       9.09554187
Al      17.15410759       6.96970655      11.15692330
Al      19.17763247       4.81956094      11.20028661
Al      19.16833535       6.99353177       9.12799521
Al      17.15000000       5.00000000      13.24245875
Al      17.15000000       7.02500000      15.30816125
Al      19.17500000       5.00000000      15.30816125
Al      19.17500000       7.02500000      13.24245875
Al      17.15000000       9.05000000       5.00000000
Al      17.15000000      11.07500000       7.02500000
Al      19.17500000       9.05000000       7.02500000
Al      19.17500000      11.07500000       5.00000000
Al      17.14102312       9.04502225       9.11366522
Al      17.12456404      11.10043596      11.17796143
Al      19.16722241       9.05777759      11.17058339
Al      19.17997775      11.08397688       9.11366522
Al      17.15000000       9.05000000      13.24245875
Al      17.15000000      11.07500000      15.30816125
Al      19.17500000       9.05000000      15.30816125
Al      19.17500000      11.07500000      13.24245875
Al      17.15000000      13.10000000       5.00000000
Al      17.15000000      15.12500000       7.02500000
Al      19.17500000      13.10000000       7.02500000
Al      19.17500000      15.12500000       5.00000000
Al      17.13429729      13.11410792       9.11893239
Al      17.17422497      15.12388874      11.18318881
Al      19.19948826      13.09573188      11.17114783
Al      19.19634350      15.12514781       9.10947163
Al      17.15000000      13.10000000      13.24245875
Al      17.15000000      15.12500000      15.30816125
Al      19.17500000      13.10000000      15.30816125
Al      19.17500000      15.12500000      13.24245875
Al      17.15000000      17.15000000       5.00000000
Al      17.15000000      19.17500000       7.02500000
Al      19.17500000      17.15000000       7.02500000
Al      19.17500000      19.17500000       5.00000000
Al      17.13132079      17.13531063       9.11940961
Al      17.12238569      19.16412111      11.17573722
Al      19.19409861      17.15095033      11.17174700
Al      19.16745592      19.17011259       9.11646555
Al      17.15000000      17.15000000      13.24245875
Al      17.15000000      19.17500000      15.30816125
Al      19.17500000      17.15000000      15.30816125
Al      19.17500000      19.17500000      13.24245875
Al      17.15000000      21.20000000       5.00000000
Al      17.15000000      23.22500000       7.02500000
Al      19.17500000      21.20000000       7.02500000
Al      19.17500000      23.22500000       5.00000000
Al      17.14531114      21.24394389       9.12881982
Al      17.15898594      23.41600276      11.19002425
Al      19.16017745      21.22456683      11.15787248
Al      19.17509451      23.40146061       9.08634709
Al      17.15000000      21.20000000      13.24245875
Al      17.15000000      23.22500000      15.30816125
Al      19.17500000      21.20000000      15.30816125
Al      19.17500000      23.22500000      13.24245875
Al      21.20000000       5.00000000       5.00000000
Al      21.20000000       7.02500000       7.02500000
Al      23.22500000       5.00000000       7.02500000
Al      23.22500000       7.02500000       5.00000000
Al      21.17328842       4.87524801       9.10633783
Al      21.19736201       7.02763799      11.14117809
Al      23.24741448       4.97758552      11.15984684
Al      23.34975199       7.05171158       9.10633783
Al      21.20000000       5.00000000      13.24245875
Al      21.20000000       7.02500000      15.30816125
Al      23.22500000       5.00000000      15.30816125
Al      23.22500000       7.02500000      13.24245875
Al      21.20000000       9.05000000       5.00000000
Al      21.20000000      11.07500000       7.02500000
Al      23.22500000       9.05000000       7.02500000
Al      23.22500000      11.07500000       5.00000000
Al      21.23146823       9.05666465       9.12799521
Al      21.25529345      11.07089241      11.15692330
Al      23.40543906       9.04736753      11.20028661
Al      23.41424737      11.06680954       9.09554187
Al      21.20000000       9.05000000      13.24245875
Al      21.20000000      11.07500000      15.30816125
Al      23.22500000       9.05000000      15.30816125
Al      23.22500000      11.07500000      13.24245875
Al      21.20000000      13.10000000       5.00000000
Al      21.20000000      15.12500000       7.02500000
Al      23.22500000      13.10000000       7.02500000
Al      23.22500000      15.12500000       5.00000000
Al      21.25778967      13.09640553       9.12836096
Al      21.25518491      15.12665322      11.15538442
Al      23.41250284      13.09749160      11.18975473
Al      23.41184995      15.12698272       9.09626634
Al      21.20000000      13.10000000      13.24245875
Al      21.20000000      15.12500000      15.30816125
Al      23.22500000      13.10000000      15.30816125
Al      23.22500000      15.12500000      13.24245875
Al      21.20000000      17.15000000       5.00000000
Al      21.20000000      19.17500000       7.02500000
Al      23.22500000      17.15000000       7.02500000
Al      23.22500000      19.17500000       5.00000000
Al      21.25485412      17.15305679       9.12660372
Al      21.23650194      19.17172144      11.15695691
Al      23.41371830      17.15709258      11.19007952
Al      23.40491139      19.17716269       9.08552896
Al      21.20000000      17.15000000      13.24245875
Al      21.20000000      19.17500000      15.30816125
Al      23.22500000      17.15000000      15.30816125
Al      23.22500000      19.17500000      13.24245875
Al      21.20000000      21.20000000       5.00000000
Al      21.20000000      23.22500000       7.02500000
Al      23.22500000      21.20000000       7.02500000
Al      23.22500000      23.22500000       5.00000000
Al      21.19674387      21.19810316       9.14555576
Al      21.17124770      23.34827207      11.17993947
Al      23.35141088      21.17405336      11.17976918
Al      23.24695853      23.24775933       9.12701601
Al      21.20000000      21.20000000      13.24245875
Al      21.20000000      23.22500000      15.30816125
Al      23.22500000      21.20000000      15.30816125
Al      23.22500000      23.22500000      13.24245875
