299
Lattice="28.224999999999998 0.0 0.0 0.0 28.224999999999998 0.0 0.0 0.0 20.125" Properties=species:S:1:pos:R:3:forces:R:3 energy=-16465.764151225776 pbc="T T T"
Al       5.00000000       5.00000000       5.00000000       0.34740515       0.34765710       0.24687313
Al       5.00000000       7.02500000       7.02500000      -0.28833564       0.37726802       0.79757591
Al       7.02500000       5.00000000       7.02500000       0.36845020      -0.28830073       0.79359033
Al       7.02500000       7.02500000       5.00000000       0.31419623       0.31369370      -0.62522308
Al       5.11605424       5.11827728       9.24688752       0.00541350       0.00799440       0.02654788
Al       5.00346156       7.10735875      11.42873864       0.04388125       0.02806485       0.00789110
Al       7.09746485       4.98026018      11.43058382       0.02062634       0.02833540       0.00971419
Al       7.11322495       7.11091104       9.22014595      -0.00355535      -0.00372215       0.02697154
Al       5.00000000       5.00000000      13.61125931       0.41042430       0.42454700      -0.50749193
Al       5.00000000       7.02500000      15.78233340       0.10196275       0.46848436      -0.40696975
Al       7.02500000       5.00000000      15.78233340       0.46853520       0.10095752      -0.40942342
Al       7.02500000       7.02500000      13.61125931       0.31878747       0.32155957      -0.31705486
Al       5.00000000       9.05000000       5.00000000      -0.19236644      -0.04303306      -0.23532865
Al       5.00000000      11.07500000       7.02500000      -0.43597866      -0.02311065       0.82266656
Al       7.02500000       9.05000000       7.02500000       0.23266384       0.01338385       0.97390739
Al       7.02500000      11.07500000       5.00000000       0.31130472      -0.02219187      -0.69073501
Al       4.93128714       9.04457562       9.19159700       0.01109343      -0.00238437       0.01098964
Al       4.90112286      11.05660574      11.41402847       0.02009533      -0.00609911       0.00357135
Al       7.07504464       9.10319913      11.40892134       0.01412155       0.01020535       0.02031554
Al       7.02688590      11.07707671       9.21380674       0.00086176      -0.00312892       0.02360960
Al       5.00000000       9.05000000      13.61125931      -0.20978445       0.04632866      -0.18150553
Al       5.00000000      11.07500000      15.78233340      -0.01484756      -0.02006362      -0.30616947
Al       7.02500000       9.05000000      15.78233340       0.33067928      -0.04596243      -0.00977477
Al       7.02500000      11.07500000      13.61125931       0.22999793       0.01786444      -0.33851746
Al       5.00000000      13.10000000       5.00000000      -0.20389384      -0.00772315      -0.24051732
Al       5.00000000      15.12500000       7.02500000      -0.46111521       0.01669582       0.84016073
Al       7.02500000      13.10000000       7.02500000       0.19025165      -0.00356563       1.06104184
Al       7.02500000      15.12500000       5.00000000       0.30943816       0.00322642      -0.69162237
Al       4.90364547      13.09371663       9.19943525       0.01351731      -0.00222367       0.01479445
Al       4.90689789      15.12970025      11.41416583       0.02664739      -0.00160666       0.00392908
Al       7.00119912      13.08736865      11.40027242       0.00103308      -0.00357420       0.02094687
Al       7.00731648      15.13120004       9.21209057      -0.00162944      -0.00622354       0.02196538
Al       5.00000000      13.10000000      13.61125931      -0.27607438      -0.01992255      -0.29922865
Al       5.00000000      15.12500000      15.78233340      -0.01709751       0.00428894      -0.30373214
Al       7.02500000      13.10000000      15.78233340       0.32836970      -0.00777456      -0.00466858
Al       7.02500000      15.12500000      13.61125931       0.15784741       0.00306039      -0.33561805
Al       5.00000000      17.15000000       5.00000000      -0.20409057       0.01948920      -0.23981685
Al       5.00000000      19.17500000       7.02500000      -0.40510326      -0.04492756       0.71060633
Al       7.02500000      17.15000000       7.02500000       0.19640754      -0.00964026       1.02200066
Al       7.02500000      19.17500000       5.00000000       0.31000123       0.05012366      -0.68557802
Al       4.90480282      17.16755580       9.20060016       0.00329031       0.00282340       0.01455908
Al       4.91595098      19.18851679      11.42442891       0.01775678       0.00614521       0.00752278
Al       7.00789149      17.16491567      11.40264775      -0.00546915       0.00734425       0.02298753
Al       7.06092659      19.13944540       9.20753073      -0.00427230       0.00052813       0.02197228
Al       5.00000000      17.15000000      13.61125931      -0.27073472       0.02187990      -0.27483700
Al       5.00000000      19.17500000      15.78233340      -0.00846806       0.03893194      -0.30964911
Al       7.02500000      17.15000000      15.78233340       0.32826504       0.01799960      -0.00409375
Al       7.02500000      19.17500000      13.61125931       0.26715824      -0.02043499      -0.29645006
Al       5.00000000      21.20000000       5.00000000      -0.08663927      -0.45001031      -0.13730748
Al       5.00000000      23.22500000       7.02500000       0.19774249      -0.19774249       0.88012412
Al       7.02500000      21.20000000       7.02500000       0.30915397      -0.30915397       0.98985666
Al       7.02500000      23.22500000       5.00000000       0.45001031       0.08663927      -0.13730748
Al       4.99528252      21.12114910       9.18513609       0.01627140      -0.01467303       0.00632584
Al       5.13002156      23.09497844      11.36988908       0.03307803      -0.03307803      -0.02636373
Al       7.13446312      21.09053688      11.39578548       0.01393215      -0.01393215       0.01252617
Al       7.10385090      23.22971748       9.18513609       0.01467303      -0.01627140       0.00632584
Al       5.00000000      21.20000000      13.61125931      -0.09537136      -0.39176865      -0.25115887
Al       5.00000000      23.22500000      15.78233340       0.55083580      -0.55083580      -0.60740366
Al       7.02500000      21.20000000      15.78233340       0.32928567      -0.32928567      -0.06285006
Al       7.02500000      23.22500000      13.61125931       0.39176865       0.09537136      -0.25115887
Al       9.05000000       5.00000000       5.00000000      -0.04146722      -0.19222348      -0.23420414
Al       9.05000000       7.02500000       7.02500000       0.00403363       0.22621583       0.96986470
Al      11.07500000       5.00000000       7.02500000      -0.02124757      -0.44698384       0.81456375
Al      11.07500000       7.02500000       5.00000000      -0.01763832       0.31197162      -0.68884602
Al       9.03922868       4.91918359       9.19079476      -0.00426943       0.00769776       0.01063225
Al       9.07156570       7.04500127      11.40894639      -0.00156758       0.00366182       0.02102189
Al      11.05982091       4.90779771      11.41389492      -0.00306228       0.02603121       0.00353989
Al      11.06373081       7.01461603       9.21101997      -0.00180299       0.00201487       0.02397348
Al       9.05000000       5.00000000      13.61125931       0.04375769      -0.23039620      -0.17118100
Al       9.05000000       7.02500000      15.78233340      -0.04426756       0.33070612      -0.01116789
Al      11.07500000       5.00000000      15.78233340      -0.01779151      -0.01324406      -0.30546862
Al      11.07500000       7.02500000      13.61125931       0.00355026       0.18899985      -0.31500582
Al       9.05000000       9.05000000       5.00000000      -0.05050718      -0.05304203      -0.75310910
Al       9.05000000      11.07500000       7.02500000      -0.03109370       0.03440315       0.95128908
Al      11.07500000       9.05000000       7.02500000       0.01083975      -0.03853230       0.94304480
Al      11.07500000      11.07500000       5.00000000      -0.01806213      -0.02366900      -0.75839783
Al       9.08951608       9.09264866       9.20378838       0.00651619       0.00311868       0.02636528
Al       9.11277701      11.14133521      11.41600046       0.01478152       0.01322744       0.02502034
Al      11.07552912       9.04412042      11.41379081       0.00854298      -0.00325735       0.02664597
Al      11.09575809      11.09867709       9.21531235       0.02710887       0.01514434       0.02217384
Al       9.05000000       9.05000000      13.61125931      -0.01366200       0.00543358      -0.24012963
Al       9.05000000      11.07500000      15.78233340      -0.04914394      -0.02278832       0.06051767
Al      11.07500000       9.05000000      15.78233340      -0.01823022      -0.05044634       0.05653374
Al      11.07500000      11.07500000      13.61125931       0.03984416       0.07047814      -0.30104458
Al       9.05000000      13.10000000       5.00000000      -0.05244812      -0.00855194      -0.75830841
Al       9.05000000      15.12500000       7.02500000      -0.07204248      -0.00738178       0.94817679
Al      11.07500000      13.10000000       7.02500000      -0.03767295      -0.02029868       0.88961457
Al      11.07500000      15.12500000       5.00000000      -0.01713970       0.00228823      -0.75051482
Al       9.05375125      13.11222905       9.21336891       0.00557108       0.00186263       0.01988869
Al       9.01321745      15.12706423      11.41405054       0.00231415      -0.00624852       0.02395706
Al      11.21822785      13.24919988      11.41369373       0.03759997       0.02351009       0.01126744
Al      11.09067436      15.12354945       9.19050332       0.02569714      -0.01870031       0.00287794
Al       9.05000000      13.10000000      13.61125931       0.01680848       0.05084355      -0.31986597
Al       9.05000000      15.12500000      15.78233340      -0.04936620       0.00396721       0.05901057
Al      11.07500000      13.10000000      15.78233340      -0.02226769      -0.01198521       0.07162951
Al      11.07500000      15.12500000      13.61125931       0.13415243      -0.00239387      -0.10894846
Al       9.05000000      17.15000000       5.00000000      -0.05324448       0.01884052      -0.75922601
Al       9.05000000      19.17500000       7.02500000      -0.00223138       0.00223138       0.92699636
Al      11.07500000      17.15000000       7.02500000      -0.02414889       0.02414889       0.87217999
Al      11.07500000      19.17500000       5.00000000      -0.01884052       0.05324448      -0.75922601
Al       9.07053051      17.12887084       9.21129156       0.00283191      -0.01342349       0.02007837
Al       9.14282342      19.08217658      11.41530623       0.01701392      -0.01701392       0.02587640
Al      11.23278841      16.99221159      11.41187897       0.04498070      -0.04498070       0.01257576
Al      11.09612916      19.15446949       9.21129156       0.01342349      -0.00283191       0.02007837
Al       9.05000000      17.15000000      13.61125931       0.02937030      -0.06001681      -0.28919204
Al       9.05000000      19.17500000      15.78233340      -0.04822472       0.04822472       0.05952474
Al      11.07500000      17.15000000      15.78233340      -0.02272385       0.02272385       0.07377234
Al      11.07500000      19.17500000      13.61125931       0.06001681      -0.02937030      -0.28919204
Al       9.05000000      21.20000000       5.00000000      -0.05012366      -0.31000123      -0.68557802
Al       9.05000000      23.22500000       7.02500000       0.04492756       0.40510326       0.71060633
Al      11.07500000      21.20000000       7.02500000       0.00964026      -0.19640754       1.02200066
Al      11.07500000      23.22500000       5.00000000      -0.01948920       0.20409057      -0.23981685
Al       9.08555460      21.16407341       9.20753073      -0.00052813       0.00427230       0.02197228
Al       9.03648321      23.30904902      11.42442891      -0.00614521      -0.01775678       0.00752278
Al      11.06008433      21.21710851      11.40264775      -0.00734425       0.00546915       0.02298753
Al      11.05744420      23.32019718       9.20060016      -0.00282340      -0.00329031       0.01455908
Al       9.05000000      21.20000000      13.61125931       0.02043499      -0.26715824      -0.29645006
Al       9.05000000      23.22500000      15.78233340      -0.03893194       0.00846806      -0.30964911
Al      11.07500000      21.20000000      15.78233340      -0.01799960      -0.32826504      -0.00409375
Al      11.07500000      23.22500000      13.61125931      -0.02187990       0.27073472      -0.27483700
Al      13.10000000       5.00000000       5.00000000      -0.00410256      -0.20017108      -0.24003876
Al      13.10000000       7.02500000       7.02500000      -0.00267688       0.16178229       1.03622469
Al      15.12500000       5.00000000       7.02500000       0.02008140      -0.45227273       0.84170567
Al      15.12500000       7.02500000       5.00000000       0.00736367       0.31278357      -0.68801167
Al      13.09509817       4.90771882       9.20039184       0.00286762       0.02042932       0.01384305
Al      13.09410469       7.01061793      11.40004144       0.00481493       0.00880146       0.01785772
Al      15.12962072       4.90722544      11.41482436       0.00226895       0.03591528       0.00230783
Al      15.13361752       7.00781857       9.21339310       0.00129131       0.01010026       0.02338301
Al      13.10000000       5.00000000      13.61125931      -0.01526638      -0.26335997      -0.30445085
Al      13.10000000       7.02500000      15.78233340      -0.00347229       0.33015250      -0.00592114
Al      15.12500000       5.00000000      15.78233340       0.00714397      -0.01332027      -0.30465148
Al      15.12500000       7.02500000      13.61125931       0.00951193       0.18061107      -0.34849740
Al      13.10000000       9.05000000       5.00000000      -0.00287043      -0.05477594      -0.75474685
Al      13.10000000      11.07500000       7.02500000       0.00161302      -0.02324901       0.95074471
Al      15.12500000       9.05000000       7.02500000      -0.00363947      -0.05233289       0.97011328
Al      15.12500000      11.07500000       5.00000000       0.00800925      -0.02279925      -0.75559692
Al      13.09759462       9.03291573       9.20083345       0.01048348       0.00066369       0.02328664
Al      13.10287105      11.04442567      11.41445496       0.01572368       0.01120996       0.01746908
Al      15.13427138       9.02671893      11.41235419       0.00127851      -0.00237983       0.02372736
Al      15.10889664      11.08658048       9.21479587      -0.00968311       0.01483616       0.02018896
Al      13.10000000       9.05000000      13.61125931       0.00657448      -0.10219041      -0.24149317
Al      13.10000000      11.07500000      15.78233340      -0.00328445      -0.02278158       0.05680546
Al      15.12500000       9.05000000      15.78233340       0.00851611      -0.05036744       0.05562938
Al      15.12500000      11.07500000      13.61125931      -0.04521622       0.05724972      -0.31176137
Al      13.10000000      13.10000000       5.00000000      -0.00198360      -0.00758289      -0.74659502
Al      13.10000000      15.12500000       7.02500000      -0.00405088       0.00405088       0.70441425
Al      15.12500000      13.10000000       7.02500000       0.02400187      -0.02400187       0.90373223
Al      15.12500000      15.12500000       5.00000000       0.00758289       0.00198360      -0.74659502
Al      13.09919323      13.12250896       9.19310702       0.02003742       0.01167302       0.00326232
Al      14.97455351      13.25044649      11.41436336      -0.02537814       0.02537814       0.00743173
Al      15.10249104      15.12580677       9.19310702      -0.01167302      -0.02003742       0.00326232
Al      13.10000000      13.10000000      13.61125931      -0.01014380       0.15032921      -0.12451758
Al      13.10000000      15.12500000      15.78233340      -0.00343960       0.00343960       0.15305399
Al      15.12500000      13.10000000      15.78233340       0.01212666      -0.01212666       0.06811346
Al      15.12500000      15.12500000      13.61125931      -0.15032921       0.01014380      -0.12451758
Al      13.10000000      17.15000000       5.00000000      -0.00228823       0.01713970      -0.75051482
Al      13.10000000      19.17500000       7.02500000       0.00738178       0.07204248       0.94817679
Al      15.12500000      17.15000000       7.02500000       0.02029868       0.03767295       0.88961457
Al      15.12500000      19.17500000       5.00000000       0.00855194       0.05244812      -0.75830841
Al      13.10145055      17.13432564       9.19050332       0.01870031      -0.02569714       0.00287794
Al      13.09793577      19.21178255      11.41405054       0.00624852      -0.00231415       0.02395706
Al      14.97580012      17.00677215      11.41369373      -0.02351009      -0.03759997       0.01126744
Al      15.11277095      19.17124875       9.21336891      -0.00186263      -0.00557108       0.01988869
Al      13.10000000      17.15000000      13.61125931       0.00239387      -0.13415243      -0.10894846
Al      13.10000000      19.17500000      15.78233340      -0.00396721       0.04936620       0.05901057
Al      15.12500000      17.15000000      15.78233340       0.01198521       0.02226769       0.07162951
Al      15.12500000      19.17500000      13.61125931      -0.05084355      -0.01680848      -0.31986597
Al      13.10000000      21.20000000       5.00000000      -0.00322642      -0.30943816      -0.69162237
Al      13.10000000      23.22500000       7.02500000      -0.01669582       0.46111521       0.84016073
Al      15.12500000      21.20000000       7.02500000       0.00356563      -0.19025165       1.06104184
Al      15.12500000      23.22500000       5.00000000       0.00772315       0.20389384      -0.24051732
Al      13.09379996      21.21768352       9.21209057       0.00622354       0.00162944       0.02196538
Al      13.09529975      23.31810211      11.41416583       0.00160666      -0.02664739       0.00392908
Al      15.13763135      21.22380088      11.40027242       0.00357420      -0.00103308       0.02094687
Al      15.13128337      23.32135453       9.19943525       0.00222367      -0.01351731       0.01479445
Al      13.10000000      21.20000000      13.61125931      -0.00306039      -0.15784741      -0.33561805
Al      13.10000000      23.22500000      15.78233340      -0.00428894       0.01709751      -0.30373214
Al      15.12500000      21.20000000      15.78233340       0.00777456      -0.32836970      -0.00466858
Al      15.12500000      23.22500000      13.61125931       0.01992255       0.27607438      -0.29922865
Al      17.15000000       5.00000000       5.00000000       0.02110290      -0.19839245      -0.23788354
Al      17.15000000       7.02500000       7.02500000      -0.00373345       0.18776780       1.01211247
Al      19.17500000       5.00000000       7.02500000      -0.04138133      -0.40430838       0.71034434
Al      19.17500000       7.02500000       5.00000000       0.04926889       0.31386410      -0.68135364
Al      17.16707379       4.90518239       9.20100118       0.00417352       0.01362449       0.01416659
Al      17.16236020       7.01148216      11.40262884       0.00872109       0.00597941       0.01780513
Al      19.18678461       4.91911952      11.42423511       0.00624551       0.02687463       0.00577143
Al      19.14440617       7.05496800       9.20605227      -0.00172432       0.00547617       0.02431893
Al      17.15000000       5.00000000      13.61125931       0.02327960      -0.26118612      -0.27678845
Al      17.15000000       7.02500000      15.78233340       0.01985192       0.33161130      -0.00709878
Al      19.17500000       5.00000000      15.78233340       0.03894187      -0.00385615      -0.31090179
Al      19.17500000       7.02500000      13.61125931      -0.00950808       0.25253484      -0.29103435
Al      17.15000000       9.05000000       5.00000000       0.02210815      -0.05328557      -0.75435079
Al      17.15000000      11.07500000       7.02500000      -0.01578927       0.01578927       0.96140982
Al      19.17500000       9.05000000       7.02500000       0.01807176      -0.01807176       0.91373143
Al      19.17500000      11.07500000       5.00000000       0.05328557      -0.02210815      -0.75435079
Al      17.13455950       9.06396500       9.20432517      -0.01026825       0.00811829       0.02542704
Al      17.08334374      11.14165626      11.41471313      -0.02411220       0.02411220       0.01910873
Al      19.11790922       9.10709078      11.41369013      -0.01591251       0.01591251       0.02376044
Al      19.16103500      11.09044050       9.20432517      -0.00811829       0.01026825       0.02542704
Al      17.15000000       9.05000000      13.61125931      -0.01793583      -0.02374601      -0.25626887
Al      17.15000000      11.07500000      15.78233340       0.02316217      -0.02316217       0.05952131
Al      19.17500000       9.05000000      15.78233340       0.04708131      -0.04708131       0.05375644
Al      19.17500000      11.07500000      13.61125931       0.02374601       0.01793583      -0.25626887
Al      17.15000000      13.10000000       5.00000000       0.02279925      -0.00800925      -0.75559692
Al      17.15000000      15.12500000       7.02500000       0.02324901      -0.00161302       0.95074471
Al      19.17500000      13.10000000       7.02500000       0.05233289       0.00363947       0.97011328
Al      19.17500000      15.12500000       5.00000000       0.05477594       0.00287043      -0.75474685
Al      17.13841952      13.11610336       9.21479587      -0.01483616       0.00968311       0.02018896
Al      17.18057433      15.12212895      11.41445496      -0.01120996      -0.01572368       0.01746908
Al      19.19828107      13.09072862      11.41235419       0.00237983      -0.00127851       0.02372736
Al      19.19208427      15.12740538       9.20083345      -0.00066369      -0.01048348       0.02328664
Al      17.15000000      13.10000000      13.61125931      -0.05724972       0.04521622      -0.31176137
Al      17.15000000      15.12500000      15.78233340       0.02278158       0.00328445       0.05680546
Al      19.17500000      13.10000000      15.78233340       0.05036744      -0.00851611       0.05562938
Al      19.17500000      15.12500000      13.61125931       0.10219041      -0.00657448      -0.24149317
Al      17.15000000      17.15000000       5.00000000       0.02366900       0.01806213      -0.75839783
Al      17.15000000      19.17500000       7.02500000      -0.03440315       0.03109370       0.95128908
Al      19.17500000      17.15000000       7.02500000       0.03853230      -0.01083975       0.94304480
Al      19.17500000      19.17500000       5.00000000       0.05304203       0.05050718      -0.75310910
Al      17.12632291      17.12924191       9.21531235      -0.01514434      -0.02710887       0.02217384
Al      17.08366479      19.11222299      11.41600046      -0.01322744      -0.01478152       0.02502034
Al      19.18087958      17.14947088      11.41379081       0.00325735      -0.00854298       0.02664597
Al      19.13235134      19.13548392       9.20378838      -0.00311868      -0.00651619       0.02636528
Al      17.15000000      17.15000000      13.61125931      -0.07047814      -0.03984416      -0.30104458
Al      17.15000000      19.17500000      15.78233340       0.02278832       0.04914394       0.06051767
Al      19.17500000      17.15000000      15.78233340       0.05044634       0.01823022       0.05653374
Al      19.17500000      19.17500000      13.61125931      -0.00543358       0.01366200      -0.24012963
Al      17.15000000      21.20000000       5.00000000       0.02219187      -0.31130472      -0.69073501
Al      17.15000000      23.22500000       7.02500000       0.02311065       0.43597866       0.82266656
Al      19.17500000      21.20000000       7.02500000      -0.01338385      -0.23266384       0.97390739
Al      19.17500000      23.22500000       5.00000000       0.04303306       0.19236644      -0.23532865
Al      17.14792329      21.19811410       9.21380674       0.00312892      -0.00086176       0.02360960
Al      17.16839426      23.32387714      11.41402847       0.00609911      -0.02009533       0.00357135
Al      19.12180087      21.14995536      11.40892134      -0.01020535      -0.01412155       0.02031554
Al      19.18042438      23.29371286       9.19159700       0.00238437      -0.01109343       0.01098964
Al      17.15000000      21.20000000      13.61125931      -0.01786444      -0.22999793      -0.33851746
Al      17.15000000      23.22500000      15.78233340       0.02006362       0.01484756      -0.30616947
Al      19.17500000      21.20000000      15.78233340       0.04596243      -0.33067928      -0.00977477
Al      19.17500000      23.22500000      13.61125931      -0.04632866       0.20978445      -0.18150553
Al      21.20000000       5.00000000       5.00000000      -0.45180351      -0.08215400      -0.13512557
Al      21.20000000       7.02500000       7.02500000      -0.30243769       0.30243769       0.99074522
Al      23.22500000       5.00000000       7.02500000      -0.19849994       0.19849994       0.87321678
Al      23.22500000       7.02500000       5.00000000       0.08215400       0.45180351      -0.13512557
Al      21.12482799       4.99065538       9.18558396      -0.01560237       0.02247743       0.00605125
Al      21.10670770       7.11829230      11.39550191      -0.01444703       0.01444703       0.00973147
Al      23.10417149       5.12082851      11.37172995      -0.03128000       0.03128000      -0.02574280
Al      23.23434462       7.10017201       9.18558396      -0.02247743       0.01560237       0.00605125
Al      21.20000000       5.00000000      13.61125931      -0.38845531      -0.10039815      -0.25258630
Al      21.20000000       7.02500000      15.78233340      -0.33164122       0.33164122      -0.06597897
Al      23.22500000       5.00000000      15.78233340      -0.55294713       0.55294713      -0.61000452
Al      23.22500000       7.02500000      13.61125931       0.10039815       0.38845531      -0.25258630
Al      21.20000000       9.05000000       5.00000000      -0.31386410      -0.04926889      -0.68135364
Al      21.20000000      11.07500000       7.02500000      -0.18776780       0.00373345       1.01211247
Al      23.22500000       9.05000000       7.02500000       0.40430838       0.04138133       0.71034434
Al      23.22500000      11.07500000       5.00000000       0.19839245      -0.02110290      -0.23788354
Al      21.17003200       9.08059383       9.20605227      -0.00547617       0.00172432       0.02431893
Al      21.21351784      11.06263980      11.40262884      -0.00597941      -0.00872109       0.01780513
Al      23.30588048       9.03821539      11.42423511      -0.02687463      -0.00624551       0.00577143
Al      23.31981761      11.05792621       9.20100118      -0.01362449      -0.00417352       0.01416659
Al      21.20000000       9.05000000      13.61125931      -0.25253484       0.00950808      -0.29103435
Al      21.20000000      11.07500000      15.78233340      -0.33161130      -0.01985192      -0.00709878
Al      23.22500000       9.05000000      15.78233340       0.00385615      -0.03894187      -0.31090179
Al      23.22500000      11.07500000      13.61125931       0.26118612      -0.02327960      -0.27678845
Al      21.20000000      13.10000000       5.00000000      -0.31278357      -0.00736367      -0.68801167
Al      21.20000000      15.12500000       7.02500000      -0.16178229       0.00267688       1.03622469
Al      23.22500000      13.10000000       7.02500000       0.45227273      -0.02008140       0.84170567
Al      23.22500000      15.12500000       5.00000000       0.20017108       0.00410256      -0.24003876
Al      21.21718143      13.09138248       9.21339310      -0.01010026      -0.00129131       0.02338301
Al      21.21438207      15.13089531      11.40004144      -0.00880146      -0.00481493       0.01785772
Al      23.31777456      13.09537928      11.41482436      -0.03591528      -0.00226895       0.00230783
Al      23.31728118      15.12990183       9.20039184      -0.02042932      -0.00286762       0.01384305
Al      21.20000000      13.10000000      13.61125931      -0.18061107      -0.00951193      -0.34849740
Al      21.20000000      15.12500000      15.78233340      -0.33015250       0.00347229      -0.00592114
Al      23.22500000      13.10000000      15.78233340       0.01332027      -0.00714397      -0.30465148
Al      23.22500000      15.12500000      13.61125931       0.26335997       0.01526638      -0.30445085
Al      21.20000000      17.15000000       5.00000000      -0.31197162       0.01763832      -0.68884602
Al      21.20000000      19.17500000       7.02500000      -0.22621583      -0.00403363       0.96986470
Al      23.22500000      17.15000000       7.02500000       0.44698384       0.02124757       0.81456375
Al      23.22500000      19.17500000       5.00000000       0.19222348       0.04146722      -0.23420414
Al      21.21038397      17.16126919       9.21101997      -0.00201487       0.00180299       0.02397348
Al      21.17999873      19.15343430      11.40894639      -0.00366182       0.00156758       0.02102189
Al      23.31720229      17.16517909      11.41389492      -0.02603121       0.00306228       0.00353989
Al      23.30581641      19.18577132       9.19079476      -0.00769776       0.00426943       0.01063225
Al      21.20000000      17.15000000      13.61125931      -0.18899985      -0.00355026      -0.31500582