299
Lattice="28.224999999999998 0.0 0.0 0.0 28.224999999999998 0.0 0.0 0.0 20.125" Properties=species:S:1:pos:R:3:forces:R:3 energy=-16373.15478073942 pbc="T T T"
Al       5.00000000       5.00000000       5.00000000       0.42638078       0.42790275      -0.23173680
Al       5.00000000       7.02500000       7.02500000      -0.33062981       0.58780865       0.68735259
Al       7.02500000       5.00000000       7.02500000       0.69546521      -0.43173813       0.76618385
Al       7.02500000       7.02500000       5.00000000       0.32333120       0.32237004      -0.78912948
Al       7.01510266       6.96940526       9.07145621      -0.01890815      -0.00656864       0.21942176
Al       5.87594324       7.47638883      13.29208350       0.01045613       0.00025661      -0.02787531
Al       7.87448779       6.03164635      11.64555489       0.06273742       0.12318776       0.07776357
Al       9.70717708       8.45285537      11.49227395       0.02733803      -0.17096911       0.10127724
Al       5.00000000       5.00000000      15.75739206       1.07965534       1.21060193       0.42329413
Al       5.00000000       7.02500000      18.54164693       0.35530929       0.49054715      -1.28146698
Al       7.02500000       5.00000000      18.54164693       0.48836684       0.36827010      -1.25317891
Al       7.02500000       7.02500000      15.75739206       0.43728073       0.36826783       1.86686750
Al       5.00000000       9.05000000       5.00000000      -0.12200032      -0.03397541      -0.61708623
Al       5.00000000      11.07500000       7.02500000      -0.72395529       0.07395316       0.65188969
Al       7.02500000       9.05000000       7.02500000      -0.12318202      -0.36910267       0.21528366
Al       7.02500000      11.07500000       5.00000000       0.33243826      -0.01196384      -0.80753746
Al       6.67310020       9.00036404      10.96962983      -0.04837576      -0.05579773      -0.05948711
Al       5.71049392      11.43136074      12.75673862      -0.01987575       0.02506183       0.03730992
Al       7.81566890       9.65237870      13.43169136      -0.01017536       0.15760625      -0.08823341
Al       6.88577114      10.94866447       9.01487063      -0.02489913      -0.01473931      -0.09465161
Al       5.00000000       9.05000000      15.75739206       0.47405882       0.22670626       0.42195727
Al       5.00000000      11.07500000      18.54164693       0.24491622      -0.02103285      -1.17414785
Al       7.02500000       9.05000000      18.54164693       0.35270555      -0.04930002      -1.27331917
Al       7.02500000      11.07500000      15.75739206       0.26884129       0.33692709       0.89847240
Al       5.00000000      13.10000000       5.00000000      -0.13544202      -0.01546893      -0.63511645
Al       5.00000000      15.12500000       7.02500000       0.06372436      -0.10198112       1.48414166
Al       7.02500000      13.10000000       7.02500000      -0.09536962       0.42276312       1.19615064
Al       7.02500000      15.12500000       5.00000000       0.33958910       0.01091365      -0.94730158
Al       6.33226140      13.31557994      10.25717933       0.13429952       0.05054592      -0.01186662
Al       6.19500374      14.73980026      12.91001661      -0.07004189      -0.03504515       0.02335693
Al       8.21381424      12.74950492      13.20486599      -0.10170234      -0.07204235      -0.04092282
Al       8.81279931      14.79874928      11.06252785      -0.03733969      -0.02443273      -0.15401785
Al       5.00000000      13.10000000      15.75739206       0.51801984      -0.02091864       0.12823371
Al       5.00000000      15.12500000      18.54164693       0.24596644      -0.00089684      -1.16688402
Al       7.02500000      13.10000000      18.54164693       0.34920081      -0.01372551      -1.23938899
Al       7.02500000      15.12500000      15.75739206       0.47036542      -0.00300468       0.77583792
Al       5.00000000      17.15000000       5.00000000      -0.14014864       0.01295898      -0.62232429
Al       5.00000000      19.17500000       7.02500000      -0.08493596      -0.14345896       1.03033390
Al       7.02500000      17.15000000       7.02500000       0.19515499       0.07681669       0.88200944
Al       7.02500000      19.17500000       5.00000000       0.33478011       0.03205483      -0.88887119
Al       6.46155332      16.17864910       9.74184478       0.04994442      -0.11699495       0.03027860
Al       6.66080478      17.55229275      13.41647768       0.00756663       0.06196403       0.08281356
Al       9.09983352      15.61031291      13.57887438      -0.01553568       0.07246225       0.08152871
Al       8.47796680      17.70764434      11.42790078       0.11847010       0.05120273      -0.15218351
Al       5.00000000      17.15000000      15.75739206       0.10144116      -0.23931026       0.97250776
Al       5.00000000      19.17500000      18.54164693       0.25169204       0.04061390      -1.16458411
Al       7.02500000      17.15000000      18.54164693       0.34537523       0.01303700      -1.26593824
Al       7.02500000      19.17500000      15.75739206       0.65812368       0.28936523       1.06828503
Al       5.00000000      21.20000000       5.00000000      -0.05312207      -0.44032888      -0.57432269
Al       5.00000000      23.22500000       7.02500000       0.52722650      -0.52722649       0.37446602
Al       7.02500000      21.20000000       7.02500000       0.35702685      -0.35702679       1.18314268
Al       7.02500000      23.22500000       5.00000000       0.44032889       0.05312208      -0.57432269
Al       7.00853441      19.18384631       9.36951664       0.06054832      -0.13218038      -0.03093397
Al       7.61191361      20.61308643      12.83794115       0.04071627      -0.04071624       0.04339165
Al       9.50070683      18.72429320      13.69903978       0.03457953      -0.03457971       0.02671433
Al       9.04115372      21.21646562       9.36951668       0.13218044      -0.06054839      -0.03093397
Al       5.00000000      21.20000000      15.75739206       0.61501620      -0.69578435       0.82414741
Al       5.00000000      23.22500000      18.54164693       0.89449972      -0.89449971      -0.98395688
Al       7.02500000      21.20000000      18.54164693       0.33652679      -0.33652677      -1.27394487
Al       7.02500000      23.22500000      15.75739206       0.69578437      -0.61501620       0.82414742
Al       9.05000000       5.00000000       5.00000000      -0.04227785      -0.14095384      -0.56902102
Al       9.05000000       7.02500000       7.02500000       0.25617762       0.12073025       0.28226906
Al      11.07500000       5.00000000       7.02500000       0.23620448      -0.14761328       1.20137509
Al      11.07500000       7.02500000       5.00000000      -0.01457355       0.32933465      -0.92008398
Al       9.92540147       6.04576900       9.54461622      -0.05577797       0.05451155      -0.08227095
Al       9.12060789       7.14250823      13.82803099       0.02011732      -0.12090874      -0.41565492
Al      11.23302462       5.83516643      12.26761984       0.08238515       0.05533438       0.04896028
Al      11.83030651       8.15207627       9.63197666       0.14127137      -0.04119037       0.05022700
Al       9.05000000       5.00000000      15.75739206      -0.01851401       0.01360393       0.66264480
Al       9.05000000       7.02500000      18.54164693      -0.04577566       0.35300444      -1.30886790
Al      11.07500000       5.00000000      18.54164693      -0.02064836       0.25209702      -1.17337405
Al      11.07500000       7.02500000      15.75739206       0.73109669       0.36523884       1.02420023
Al       9.05000000       9.05000000       5.00000000      -0.05332573      -0.03282684      -0.84601071
Al       9.05000000      11.07500000       7.02500000      -0.00692004      -0.11423598       0.44261477
Al      11.07500000       9.05000000       7.02500000       0.24139291      -0.29842269       0.52316031
Al      11.07500000      11.07500000       5.00000000      -0.01157498       0.00243457      -0.87960593
Al       8.99952606       9.01299320       9.00185385       0.09901419       0.00349675      -0.00141844
Al       8.73503173      11.20237857      11.00939211      -0.05725006       0.01118276      -0.04968064
Al      10.52816694      10.69160097      13.07157059       0.15606867      -0.11835695       0.09349829
Al      11.08082947      10.96122006       9.16393467      -0.04225236      -0.11870170      -0.07303377
Al       9.05000000       9.05000000      15.75739206       0.62499382       0.57421934       2.11569051
Al       9.05000000      11.07500000      18.54164693      -0.04306666      -0.01997694      -1.20646208
Al      11.07500000       9.05000000      18.54164693      -0.01995190      -0.04636838      -1.20662475
Al      11.07500000      11.07500000      15.75739206       0.16406334      -0.01293726       1.18851295
Al       9.05000000      13.10000000       5.00000000      -0.03023654      -0.01025614      -0.85881952
Al       9.05000000      15.12500000       7.02500000      -0.26460081      -0.10741326       0.85605338
Al      11.07500000      13.10000000       7.02500000       0.42877724       0.05691985       0.89129953
Al      11.07500000      15.12500000       5.00000000      -0.01363204       0.00177862      -0.87603152
Al       9.07923923      13.08427634       8.98291756      -0.27731937       0.05465921       0.06523002
Al      11.00276826      13.44917795      13.71344082       0.10990151      -0.15246468      -0.32356800
Al      11.22129104      12.92438719      11.13184505      -0.00648551       0.07013248       0.51794101
Al      11.15790768      15.12576327       9.31341701       0.00570879      -0.00628286      -0.02158560
Al       9.05000000      13.10000000      15.75739206      -0.09175671       0.01359272       1.90727790
Al       9.05000000      15.12500000      18.54164693      -0.04022479      -0.00687884      -1.22811654
Al      11.07500000      13.10000000      18.54164693      -0.01200353      -0.01051056      -1.24488670
Al      11.07500000      15.12500000      15.75739206       0.34576417       1.07248080       1.59752351
Al       9.05000000      17.15000000       5.00000000      -0.02076892       0.01769064      -0.84405676
Al       9.05000000      19.17500000       7.02500000      -0.34362929       0.34362927       0.92389818
Al      11.07500000      17.15000000       7.02500000       0.59359149      -0.59359149       0.01428187
Al      11.07500000      19.17500000       5.00000000      -0.01769065       0.02076892      -0.84405676
Al       9.16939750      17.07535352       8.98803215      -0.17444127      -0.11248053       0.18907046
Al      11.44111420      16.78388580      11.97413608      -0.09284537       0.09284535      -0.06415889
Al      13.44518368      14.77981642      12.80723220       0.07828454      -0.07828459       0.04882290
Al      11.14964643      19.05560251       8.98803215       0.11248054       0.17444120       0.18907061
Al       9.05000000      17.15000000      15.75739206      -0.38783133      -0.11219981       2.78512700
Al       9.05000000      19.17500000      18.54164693      -0.04233455       0.04233458      -1.22999242
Al      11.07500000      17.15000000      18.54164693      -0.01424053       0.01424055      -1.19946200
Al      11.07500000      19.17500000      15.75739206       0.11220000       0.38783142       2.78512688
Al       9.05000000      21.20000000       5.00000000      -0.03205483      -0.33478011      -0.88887120
Al       9.05000000      23.22500000       7.02500000       0.14345895       0.08493595       1.03033389
Al      11.07500000      21.20000000       7.02500000      -0.07681675      -0.19515499       0.88200938
Al      11.07500000      23.22500000       5.00000000      -0.01295898       0.14014864      -0.62232429
Al      10.51735577      19.74703324      11.42790084      -0.05120268      -0.11847008      -0.15218386
Al      10.67270732      21.56419520      13.41647773      -0.06196395      -0.00756653       0.08281366
Al      12.61468720      19.12516637      13.57887440      -0.07246226       0.01553563       0.08152876
Al      12.04635100      21.76344666       9.74184472       0.11699494      -0.04994443       0.03027862
Al       9.05000000      21.20000000      15.75739206      -0.28936522      -0.65812364       1.06828505
Al       9.05000000      23.22500000      18.54164693      -0.04061388      -0.25169204      -1.16458412
Al      11.07500000      21.20000000      18.54164693      -0.01303698      -0.34537521      -1.26593826
Al      11.07500000      23.22500000      15.75739206       0.23931027      -0.10144111       0.97250787
Al      13.10000000       5.00000000       5.00000000       0.00521529      -0.16568847      -0.55180464
Al      13.10000000       7.02500000       7.02500000       0.07704622       0.56331642       1.62683773
Al      15.12500000       5.00000000       7.02500000      -0.02581808       0.00652186       1.53439492
Al      15.12500000       7.02500000       5.00000000       0.02495520       0.33339762      -0.95633581
Al      13.14740250       5.55460833       9.60045533       0.00449011      -0.03662641       0.02764366
Al      12.15839023       8.39531691      13.10000389       0.11227056      -0.03752217       0.05086644
Al      14.31556006       6.35790816      12.62389955      -0.06250142       0.08140613       0.00576227
Al      14.61317150       8.10099050       9.94692036      -0.07004849       0.02924380       0.00583412
Al      13.10000000       5.00000000      15.75739206      -0.09624486       0.52980163       0.14111245
Al      13.10000000       7.02500000      18.54164693      -0.00445609       0.35287523      -1.24232582
Al      15.12500000       5.00000000      18.54164693       0.00589894       0.24407575      -1.16094075
Al      15.12500000       7.02500000      15.75739206       0.07796025       0.31031302       0.41500931
Al      13.10000000       9.05000000       5.00000000       0.00839092      -0.01947878      -1.00409852
Al      13.10000000      11.07500000       7.02500000      -0.09393206      -0.35666410       1.20964311
Al      15.12500000       9.05000000       7.02500000      -0.35370252      -0.47063552       1.18236462
Al      15.12500000      11.07500000       5.00000000       0.02447052       0.00816001      -0.85446646
Al      13.11690915      10.36136709      11.02121619       0.02628678       0.07124017       0.05068532
Al      13.38572777      11.63799057      13.39461642      -0.04178909       0.09903577       0.12668970
Al      14.97104966       9.11986770      13.57843978      -0.07453376      -0.07445994       0.01603681
Al      15.14208296      11.03470238       9.08201201      -0.14567578       0.01445430      -0.12703002
Al      13.10000000       9.05000000      15.75739206      -0.27253446       0.24195561       1.21749409
Al      13.10000000      11.07500000      18.54164693      -0.00622906      -0.01349149      -1.22040149
Al      15.12500000       9.05000000      18.54164693      -0.00321985      -0.04205406      -1.23072269
Al      15.12500000      11.07500000      15.75739206      -0.29984955      -0.13299998       2.04583049
Al      13.10000000      13.10000000       5.00000000       0.02169787      -0.00690034      -0.87380966
Al      13.10000000      15.12500000       7.02500000      -0.02703806       0.02703807       0.99033630
Al      15.12500000      13.10000000       7.02500000      -0.06436923       0.06436901       0.63705914
Al      15.12500000      15.12500000       5.00000000       0.00690038      -0.02169790      -0.87380965
Al      13.15410766      13.08486196       9.21772072       0.07618834      -0.09801965      -0.22591374
Al      15.19024142      13.03475830      11.28505114       0.06020145      -0.06020144       0.00664659
Al      15.14013793      15.07089229       9.21772083       0.09801966      -0.07618845      -0.22591355
Al      13.10000000      13.10000000      15.75739206       0.32517168       0.44490111       1.26630881
Al      13.10000000      15.12500000      18.54164693       0.00401572      -0.00401571      -1.20066580
Al      15.12500000      13.10000000      18.54164693       0.00554011      -0.00554010      -1.21066601
Al      15.12500000      15.12500000      15.75739206      -0.44490101      -0.32517180       1.26630883
Al      13.10000000      17.15000000       5.00000000      -0.00177863       0.01363203      -0.87603153
Al      13.10000000      19.17500000       7.02500000       0.10741311       0.26460084       0.85605342
Al      15.12500000      17.15000000       7.02500000      -0.05691993      -0.42877733       0.89129956
Al      15.12500000      19.17500000       5.00000000       0.01025612       0.03023652      -0.85881953
Al      13.09923675      17.06709238       9.31341697       0.00628261      -0.00570870      -0.02158563
Al      14.77582229      17.22223165      13.71344094       0.15246478      -0.10990166      -0.32356801
Al      15.30061272      17.00370908      11.13184507      -0.07013250       0.00648533       0.51794112
Al      15.14072365      19.14576082       8.98291757      -0.05465923       0.27731948       0.06522995
Al      13.10000000      17.15000000      15.75739206      -1.07248064      -0.34576424       1.59752329
Al      13.10000000      19.17500000      18.54164693       0.00687884       0.04022481      -1.22811656
Al      15.12500000      17.15000000      18.54164693       0.01051056       0.01200353      -1.24488673
Al      15.12500000      19.17500000      15.75739206      -0.01359276       0.09175696       1.90727801
Al      13.10000000      21.20000000       5.00000000      -0.01091367      -0.33958910      -0.94730158
Al      13.10000000      23.22500000       7.02500000       0.10198111      -0.06372433       1.48414157
Al      15.12500000      21.20000000       7.02500000      -0.42276315       0.09536971       1.19615065
Al      15.12500000      23.22500000       5.00000000       0.01546890       0.13544203      -0.63511648
Al      13.42625073      19.41220073      11.06252784       0.02443255       0.03733971      -0.15401779
Al      13.48519982      22.02999618      12.91001664       0.03504509       0.07004191       0.02335701
Al      15.47549516      20.01118564      13.20486594       0.07204241       0.10170232      -0.04092274
Al      14.90942015      21.89273858      10.25717942      -0.05054600      -0.13429943      -0.01186655
Al      13.10000000      21.20000000      15.75739206       0.00300466      -0.47036548       0.77583798
Al      13.10000000      23.22500000      18.54164693       0.00089684      -0.24596646      -1.16688404
Al      15.12500000      21.20000000      18.54164693       0.01372549      -0.34920080      -1.23938901
Al      15.12500000      23.22500000      15.75739206       0.02091863      -0.51801984       0.12823377
Al      17.15000000       5.00000000       5.00000000       0.02686698      -0.13999627      -0.59882017
Al      17.15000000       7.02500000       7.02500000      -0.04175514      -0.09350467       1.05096159
Al      19.17500000       5.00000000       7.02500000      -0.19566312      -0.22672618       1.00120076
Al      19.17500000       7.02500000       5.00000000       0.04452216       0.32981107      -0.88130264
Al      16.47177909       5.98756034       9.82654151       0.02893963      -0.03305371      -0.05992688
Al      17.08443284       7.46770910      12.49865260      -0.01440471      -0.06083170       0.04135854
Al      18.83033985       5.39546881      13.20688871      -0.02970194       0.04612881       0.02629449
Al      17.23110529       8.92926020       9.06496693       0.04237937      -0.11987893       0.05385921
Al      17.15000000       5.00000000      15.75739206      -0.09849561       0.42000272       0.46606096
Al      17.15000000       7.02500000      18.54164693       0.02027888       0.34264198      -1.23642658
Al      19.17500000       5.00000000      18.54164693       0.04781801       0.24193249      -1.21020706
Al      19.17500000       7.02500000      15.75739206      -0.30039973       0.58449391       0.82844423
Al      17.15000000       9.05000000       5.00000000       0.02093814      -0.02368646      -0.85761320
Al      17.15000000      11.07500000       7.02500000       0.13997868      -0.13997757       0.60931478
Al      19.17500000       9.05000000       7.02500000       0.55392359      -0.55392237       0.95277641
Al      19.17500000      11.07500000       5.00000000       0.02368645      -0.02093810      -0.85761336
Al      16.24978622      10.03277492      11.37518833      -0.07209532       0.03316846       0.01455610
Al      16.38528947      11.83971001      13.50041691      -0.04065611       0.04065593      -0.02316387
Al      18.42727557       9.79772575      13.51552618       0.02034586      -0.02034618      -0.10869884
Al      18.19222262      11.97521335      11.37518776      -0.03316969       0.07209517       0.01455590
Al      17.15000000       9.05000000      15.75739206      -0.53255093      -0.36447450       1.35635785
Al      17.15000000      11.07500000      18.54164693       0.01182556      -0.01182552      -1.23260894
Al      19.17500000       9.05000000      18.54164693       0.05132430      -0.05132425      -1.21455844
Al      19.17500000      11.07500000      15.75739206       0.36447582       0.53255230       1.35636313
Al      17.15000000      13.10000000       5.00000000      -0.00815997      -0.02447044      -0.85446639
Al      17.15000000      15.12500000       7.02500000       0.35666368       0.09393328       1.20964205
Al      19.17500000      13.10000000       7.02500000       0.47063766       0.35370172       1.18236705
Al      19.17500000      15.12500000       5.00000000       0.01947873      -0.00839092      -1.00409851
Al      17.19029786      13.08291741       9.08201155      -0.01445458       0.14567642      -0.12703067
Al      16.58700965      14.83927182      13.39461649      -0.09903565       0.04178872       0.12668991
Al      19.10513271      13.25394911      13.57843929       0.07445965       0.07453324       0.01603645
Al      17.86363242      15.10809085      11.02121606      -0.07124034      -0.02628681       0.05068519
Al      17.15000000      13.10000000      15.75739206       0.13300056       0.29984855       2.04582830
Al      17.15000000      15.12500000      18.54164693       0.01349147       0.00622906      -1.22040149
Al      19.17500000      13.10000000      18.54164693       0.04205405       0.00321980      -1.23072266
Al      19.17500000      15.12500000      15.75739206      -0.24195577       0.27253261       1.21749138
Al      17.15000000      17.15000000       5.00000000      -0.00243454       0.01157492      -0.87960591
Al      17.15000000      19.17500000       7.02500000       0.11423600       0.00692008       0.44261468
Al      19.17500000      17.15000000       7.02500000       0.29842243      -0.24139259       0.52315968
Al      19.17500000      19.17500000       5.00000000       0.03282685       0.05332566      -0.84601073
Al      17.26377980      17.14417057       9.16393461       0.11870175       0.04225224      -0.07303400
Al      17.02262150      19.48996813      11.00939213      -0.01118273       0.05725004      -0.04968058
Al      17.53339926      17.69683276      13.07157059       0.11835699      -0.15606883       0.09349820
Al      19.21200680      19.22547385       9.00185388      -0.00349656      -0.09901429      -0.00141842
Al      17.15000000      17.15000000      15.75739206       0.01293722      -0.16406319       1.18851336
Al      17.15000000      19.17500000      18.54164693       0.01997692       0.04306667      -1.20646210
Al      19.17500000      17.15000000      18.54164693       0.04636833       0.01995190      -1.20662474
Al      19.17500000      19.17500000      15.75739206      -0.57421936      -0.62499365       2.11569089
Al      17.15000000      21.20000000       5.00000000       0.01196381      -0.33243827      -0.80753751
Al      17.15000000      23.22500000       7.02500000      -0.07395319       0.72395518       0.65188981
Al      19.17500000      21.20000000       7.02500000       0.36910265       0.12318181       0.21528388
Al      19.17500000      23.22500000       5.00000000       0.03397541       0.12200034      -0.61708627
Al      17.27633554      21.33922882       9.01487065       0.01473938       0.02489909      -0.09465168
Al      16.79363933      22.51450603      12.75673873      -0.02506182       0.01987577       0.03730994
Al      18.57262126      20.40933091      13.43169131      -0.15760624       0.01017536      -0.08823346
Al      19.22463597      21.55189961      10.96962985       0.05579785       0.04837566      -0.05948705
Al      17.15000000      21.20000000      15.75739206      -0.33692696      -0.26884133       0.89847226
Al      17.15000000      23.22500000      18.54164693       0.02103283      -0.24491622      -1.17414787
Al      19.17500000      21.20000000      18.54164693       0.04930000      -0.35270553      -1.27331918
Al      19.17500000      23.22500000      15.75739206      -0.22670627      -0.47405883       0.42195730
Al      21.20000000       5.00000000       5.00000000      -0.44247610      -0.03310125      -0.56407159
Al      21.20000000       7.02500000       7.02500000      -0.34985698       0.34985852       1.10589420
Al      23.22500000       5.00000000       7.02500000      -0.56700756       0.56700746       0.43858585
Al      23.22500000       7.02500000       5.00000000       0.03310127       0.44247605      -0.56407171
Al      19.32038141       6.77855683       9.40624307      -0.03544241      -0.12766603       0.00315567
Al      19.19337606       9.03162135      11.06516134      -0.07435533       0.07435485       0.13186315
Al      20.56546041       7.65953983      13.22194265       0.00357030      -0.00357087      -0.11500409
Al      21.44644296       8.90461918       9.40624425       0.12766545       0.03544296       0.00315685
Al      21.20000000       5.00000000      15.75739206      -0.82363682       0.60379317       0.54589055
Al      21.20000000       7.02500000      18.54164693      -0.33681991       0.33681993      -1.29757485
Al      23.22500000       5.00000000      18.54164693      -0.90007743       0.90007740      -0.98370120
Al      23.22500000       7.02500000      15.75739206      -0.60379326       0.82363706       0.54589013
Al      21.20000000       9.05000000       5.00000000      -0.32981109      -0.04452213      -0.88130284
Al      21.20000000      11.07500000       7.02500000       0.09350323       0.04175433       1.05096003
Al      23.22500000       9.05000000       7.02500000       0.22672476       0.19566329       1.00120282
Al      23.22500000      11.07500000       5.00000000       0.13999633      -0.02686686      -0.59881979
Al      19.29574032      10.99389447       9.06496771       0.11987897      -0.04237983       0.05386011
Al      20.75729019      11.14056711      12.49864633       0.06083144       0.01440481       0.04135454
Al      22.82953017       9.39466184      13.20688898      -0.04612849       0.02970278       0.02629424
Al      22.23744122      11.75322195       9.82653913       0.03305459      -0.02893905      -0.05992792
Al      21.20000000       9.05000000      15.75739206      -0.58449451       0.30039942       0.82844607
Al      21.20000000      11.07500000      18.54164693      -0.34264198      -0.02027891      -1.23642657
Al      23.22500000       9.05000000      18.54164693      -0.24193255      -0.04781797      -1.21020703
Al      23.22500000      11.07500000      15.75739206      -0.42000204       0.09849677       0.46606328
Al      21.20000000      13.10000000       5.00000000      -0.33339757      -0.02495525      -0.95633578
Al      21.20000000      15.12500000       7.02500000      -0.56331618      -0.07704696       1.62683800
Al      23.22500000      13.10000000       7.02500000      -0.00652082       0.02581934       1.53439231
Al      23.22500000      15.12500000       5.00000000       0.16568847      -0.00521534      -0.55180463
Al      20.12400953      13.61182792       9.94692217      -0.02924396       0.07004792       0.00583546
Al      19.82968316      16.06660886      13.10000354       0.03752226      -0.11227096       0.05086613
Al      21.86709279      13.90943924      12.62390058      -0.08140568       0.06250092       0.00576245
Al      22.67039144      15.07759744       9.60045549       0.03662666      -0.00449042       0.02764382
Al      21.20000000      13.10000000      15.75739206      -0.31031300      -0.07796041       0.41501013
Al      21.20000000      15.12500000      18.54164693      -0.35287525       0.00445605      -1.24232582
Al      23.22500000      13.10000000      18.54164693      -0.24407572      -0.00589898      -1.16094083
Al      23.22500000      15.12500000      15.75739206      -0.52980143       0.09624490       0.14111273
Al      21.20000000      17.15000000       5.00000000      -0.32933469       0.01457351      -0.92008395
Al      21.20000000      19.17500000       7.02500000      -0.12073018      -0.25617768       0.28226905
Al      23.22500000      17.15000000       7.02500000       0.14761336      -0.23620457       1.20137512
Al      23.22500000      19.17500000       5.00000000       0.14095382       0.04227782      -0.56902107
Al      20.07292340      16.39469289       9.63197638       0.04118993      -0.14127109       0.05022698
Al      21.08249171      19.10439199      13.82803096       0.12090870      -0.02011729      -0.41565508
Al      22.38983354      16.99197510      12.26761997      -0.05533428      -0.08238542       0.04896046
Al      22.17923074      18.29959820       9.54461626      -0.05451185       0.05577786      -0.08227101
Al      21.20000000      17.15000000      15.75739206      -0.36523907      -0.73109708       1.02419986