299
Lattice="28.224999999999998 0.0 0.0 0.0 28.224999999999998 0.0 0.0 0.0 20.125" Properties=species:S:1:pos:R:3:forces:R:3 energy=-16397.19792151057 pbc="T T T"
Al       5.00000000       5.00000000       5.00000000       0.39511920       0.39319168      -0.05853764
Al       5.00000000       7.02500000       7.02500000      -0.01753272       0.60614289       1.35085350
Al       7.02500000       5.00000000       7.02500000       0.66778878      -0.03965314       1.37706254
Al       7.02500000       7.02500000       5.00000000       0.31779139       0.31809837      -0.83710471
Al       5.84497396       5.81317712       9.71640455       0.00033012       0.01253055      -0.02447688
Al       5.49625649       7.43210842      12.43597202       0.00744336       0.00736037       0.00825843
Al       7.50976034       5.31768057      12.36804438       0.00597878       0.00939262       0.00062473
Al       7.86388500       7.59071828       9.85114051       0.01954412      -0.00955240       0.01441944
Al       5.00000000       5.00000000      15.10173676       1.11137613       1.07873950      -0.11794463
Al       5.00000000       7.02500000      17.69866155       0.33610164       0.48692733      -1.20160115
Al       7.02500000       5.00000000      17.69866155       0.48761176       0.33456714      -1.20210521
Al       7.02500000       7.02500000      15.10173676       0.57128949       0.44018938       0.12156375
Al       5.00000000       9.05000000       5.00000000      -0.16231101      -0.03831499      -0.47405160
Al       5.00000000      11.07500000       7.02500000      -0.12281042       0.11404740       1.79678405
Al       7.02500000       9.05000000       7.02500000       0.54842643       0.01000943       2.03003816
Al       7.02500000      11.07500000       5.00000000       0.32301679      -0.01483050      -0.89361618
Al       5.44170442       9.09769643       9.65691596       0.04463682       0.00715986       0.00653149
Al       5.24471735      11.13019906      12.38324201       0.03886782      -0.00566797       0.00448843
Al       7.47538849       9.38897840      12.36710860       0.03237483      -0.01588593       0.01169087
Al       7.03449238      11.54948773       9.70817483      -0.01763438       0.01222863       0.00412143
Al       5.00000000       9.05000000      15.10173676       0.31473720       0.13023043       0.02121499
Al       5.00000000      11.07500000      17.69866155       0.22211230      -0.01595029      -1.11126538
Al       7.02500000       9.05000000      17.69866155       0.34799591      -0.04319520      -1.10343978
Al       7.02500000      11.07500000      15.10173676       0.38639063       0.07008327      -0.03598175
Al       5.00000000      13.10000000       5.00000000      -0.17659631       0.00191815      -0.47542171
Al       5.00000000      15.12500000       7.02500000      -0.07394501       0.00155217       1.51920718
Al       7.02500000      13.10000000       7.02500000       0.34264711       0.10837910       1.95663365
Al       7.02500000      15.12500000       5.00000000       0.32488008       0.00674523      -0.88944072
Al       5.03152959      13.55739400       9.78039593       0.01646993       0.00453114       0.00719915
Al       5.07801173      15.44419798      12.52567999      -0.03728213       0.02733741      -0.00787669
Al       7.00842009      13.42034613      12.49086812      -0.01029381       0.03901590       0.00411973
Al       7.66447878      14.72327097       9.74856128       0.01652198      -0.00085672      -0.01415772
Al       5.00000000      13.10000000      15.10173676       0.21758747       0.07170846      -0.13591353
Al       5.00000000      15.12500000      17.69866155       0.21751220       0.00806585      -1.12982026
Al       7.02500000      13.10000000      17.69866155       0.34700966      -0.00373489      -1.11219908
Al       7.02500000      15.12500000      15.10173676       0.41892400       0.09492801       0.10128657
Al       5.00000000      17.15000000       5.00000000      -0.16315016       0.01248578      -0.48809542
Al       5.00000000      19.17500000       7.02500000      -0.11643263      -0.18853144       1.52583983
Al       7.02500000      17.15000000       7.02500000       0.41309489      -0.04011998       1.76233441
Al       7.02500000      19.17500000       5.00000000       0.32483957       0.04425887      -0.84977255
Al       5.59522518      16.77921882       9.71067354       0.02225308      -0.00824797      -0.01753633
Al       5.57416288      18.81576081      12.33358013       0.00736186      -0.00486593      -0.00301730
Al       7.61967653      16.79022043      12.33344397       0.00983495      -0.00652614      -0.00142857
Al       7.05669130      19.23039951       9.56385970      -0.00631470       0.00641850      -0.00719709
Al       5.00000000      17.15000000      15.10173676       0.31358484       0.09780452       0.17495187
Al       5.00000000      19.17500000      17.69866155       0.23275616       0.03853606      -1.10185085
Al       7.02500000      17.15000000      17.69866155       0.34693399       0.01598244      -1.10216140
Al       7.02500000      19.17500000      15.10173676       0.40289086       0.01951726       0.05004384
Al       5.00000000      21.20000000       5.00000000      -0.08514718      -0.44343376      -0.29554084
Al       5.00000000      23.22500000       7.02500000       0.46111376      -0.46111376       0.97084082
Al       7.02500000      21.20000000       7.02500000       0.36684534      -0.36684534       1.62771599
Al       7.02500000      23.22500000       5.00000000       0.44343376       0.08514718      -0.29554084
Al       5.07027349      21.09950580       9.44281725      -0.00357105       0.00362772      -0.01553494
Al       6.62306303      21.60193697      12.28677992       0.00223156      -0.00223156      -0.01325399
Al       8.63708076      19.58791924      12.34919243       0.00908754      -0.00908754       0.00023858
Al       7.12549420      23.15472651       9.44281725      -0.00362772       0.00357105      -0.01553494
Al       5.00000000      21.20000000      15.10173676       0.41309678      -0.68731119       0.18573677
Al       5.00000000      23.22500000      17.69866155       0.85904925      -0.85904925      -0.97947190
Al       7.02500000      21.20000000      17.69866155       0.34026457      -0.34026457      -1.14537378
Al       7.02500000      23.22500000      15.10173676       0.68731119      -0.41309678       0.18573677
Al       9.05000000       5.00000000       5.00000000      -0.03395834      -0.17538715      -0.44670447
Al       9.05000000       7.02500000       7.02500000       0.00952324       0.39736541       1.94574159
Al      11.07500000       5.00000000       7.02500000       0.07256095      -0.05415379       1.58226967
Al      11.07500000       7.02500000       5.00000000      -0.01593685       0.32145517      -0.89602734
Al       9.26448342       5.15977434       9.59579015       0.02678274       0.00460492       0.00517289
Al       9.36582936       7.36106565      12.56983819       0.03613356      -0.01089768       0.00643314
Al      11.08880046       5.16328466      12.37573559       0.03743061      -0.01608236       0.00614665
Al      10.92259238       7.58402953       9.77566109      -0.00582537       0.02662988      -0.00790761
Al       9.05000000       5.00000000      15.10173676       0.12221348       0.28582225       0.02529732
Al       9.05000000       7.02500000      17.69866155      -0.04128772       0.34804570      -1.11248759
Al      11.07500000       5.00000000      17.69866155      -0.01729310       0.22232804      -1.11428999
Al      11.07500000       7.02500000      15.10173676       0.03836170       0.37374303       0.22564565
Al       9.05000000       9.05000000       5.00000000      -0.04037583      -0.04035982      -0.96540533
Al       9.05000000      11.07500000       7.02500000      -0.01617932       0.10144420       1.88321417
Al      11.07500000       9.05000000       7.02500000       0.01017426       0.05253201       2.10477685
Al      11.07500000      11.07500000       5.00000000      -0.01302331      -0.01431333      -0.94752826
Al       9.22194131       9.87592020       9.79223396       0.00123110       0.02701534      -0.03327368
Al       9.07826259      11.61164244      12.51934522      -0.01605119       0.02875990      -0.01437426
Al      11.00643753       9.59461763      12.40679610      -0.01732508       0.03065364       0.00329133
Al      11.81446128      10.77472531       9.70610136       0.02488520       0.02255460      -0.01141509
Al       9.05000000       9.05000000      15.10173676       0.02126338       0.18469116       0.16606448
Al       9.05000000      11.07500000      17.69866155      -0.04537491      -0.01613753      -1.05853230
Al      11.07500000       9.05000000      17.69866155      -0.01721638      -0.04661387      -1.05686958
Al      11.07500000      11.07500000      15.10173676       0.04301050       0.09198501       0.07008969
Al       9.05000000      13.10000000       5.00000000      -0.04104424      -0.00499273      -0.95266486
Al       9.05000000      15.12500000       7.02500000       0.03463984      -0.03520869       1.89122478
Al      11.07500000      13.10000000       7.02500000       0.01997079      -0.02867403       1.80758415
Al      11.07500000      15.12500000       5.00000000      -0.01482601       0.00543525      -0.92669991
Al       9.72108699      12.76260391       9.72758588      -0.00135105      -0.00364316      -0.02136835
Al       9.58844964      14.76335121      12.41085072       0.01803736       0.00029070      -0.00642062
Al      11.64867490      12.80131807      12.33496864       0.00042461       0.00378874       0.00739018
Al      10.89711479      15.34130936       9.61955719       0.00840125      -0.01280132      -0.01662843
Al       9.05000000      13.10000000      15.10173676       0.00224437       0.16031066       0.32168167
Al       9.05000000      15.12500000      17.69866155      -0.04717867       0.00563136      -1.05220887
Al      11.07500000      13.10000000      17.69866155      -0.01838381      -0.00609910      -1.05229717
Al      11.07500000      15.12500000      15.10173676       0.04369404       0.00617863       0.04860319
Al       9.05000000      17.15000000       5.00000000      -0.04186189       0.01920521      -0.91581886
Al       9.05000000      19.17500000       7.02500000      -0.10028644       0.10028644       1.77368366
Al      11.07500000      17.15000000       7.02500000      -0.07975382       0.07975382       1.89485498
Al      11.07500000      19.17500000       5.00000000      -0.01920521       0.04186189      -0.91581886
Al       8.93959327      17.27624421       9.53021869       0.00447271       0.00036666      -0.00799906
Al      10.64097840      17.58402160      12.25447324       0.01884156      -0.01884156      -0.00127102
Al      12.63517513      15.58982487      12.33304182       0.01709912      -0.01709912      -0.00497544
Al      10.94875579      19.28540673       9.53021869      -0.00036666      -0.00447271      -0.00799906
Al       9.05000000      17.15000000      15.10173676       0.02512116       0.02788423      -0.05968308
Al       9.05000000      19.17500000      17.69866155      -0.04442741       0.04442741      -1.04612555
Al      11.07500000      17.15000000      17.69866155      -0.01874648       0.01874648      -1.04534725
Al      11.07500000      19.17500000      15.10173676      -0.02788423      -0.02512116      -0.05968308
Al       9.05000000      21.20000000       5.00000000      -0.04425887      -0.32483957      -0.84977255
Al       9.05000000      23.22500000       7.02500000       0.18853144       0.11643263       1.52583983
Al      11.07500000      21.20000000       7.02500000       0.04011998      -0.41309489       1.76233441
Al      11.07500000      23.22500000       5.00000000      -0.01248578       0.16315016      -0.48809542
Al       8.99460049      21.16830870       9.56385970      -0.00641850       0.00631470      -0.00719709
Al       9.40923919      22.65083712      12.33358013       0.00486593      -0.00736186      -0.00301730
Al      11.43477957      20.60532347      12.33344397       0.00652614      -0.00983495      -0.00142857
Al      11.44578118      22.62977482       9.71067354       0.00824797      -0.02225308      -0.01753633
Al       9.05000000      21.20000000      15.10173676      -0.01951726      -0.40289086       0.05004384
Al       9.05000000      23.22500000      17.69866155      -0.03853606      -0.23275616      -1.10185085
Al      11.07500000      21.20000000      17.69866155      -0.01598244      -0.34693399      -1.10216140
Al      11.07500000      23.22500000      15.10173676      -0.09780452      -0.31358484       0.17495187
Al      13.10000000       5.00000000       5.00000000      -0.00779709      -0.16021403      -0.49402279
Al      13.10000000       7.02500000       7.02500000       0.00794238       0.46891865       1.91580624
Al      15.12500000       5.00000000       7.02500000       0.06323440      -0.19251723       1.74678008
Al      15.12500000       7.02500000       5.00000000       0.00670467       0.32490597      -0.87241403
Al      12.95762374       5.56249894       9.72801689       0.00347550      -0.00355561      -0.00792265
Al      12.85366936       7.44786497      12.50541629      -0.00732890       0.03160347      -0.01230182
Al      15.02182309       5.51614978      12.35907868      -0.02372825       0.02526753       0.00848070
Al      15.64216812       6.81142526       9.58897943       0.01634526      -0.00932381      -0.01176933
Al      13.10000000       5.00000000      15.10173676      -0.04664386       0.33663259      -0.13802248
Al      13.10000000       7.02500000      17.69866155      -0.00545329       0.34774107      -1.10986276
Al      15.12500000       5.00000000      17.69866155       0.00377750       0.22739262      -1.10172238
Al      15.12500000       7.02500000      15.10173676       0.02085966       0.43704060       0.09232890
Al      13.10000000       9.05000000       5.00000000      -0.00253753      -0.04197799      -0.95260874
Al      13.10000000      11.07500000       7.02500000       0.08859015      -0.01284347       1.72494069
Al      15.12500000       9.05000000       7.02500000       0.00514411      -0.02914709       1.96319719
Al      15.12500000      11.07500000       5.00000000       0.00368999      -0.01415153      -0.93375625
Al      13.62851361       8.68862510       9.75444892       0.00004662      -0.02101208      -0.00842673
Al      13.59794688      10.79406369      12.44422240      -0.00698548       0.00373003      -0.00719842
Al      15.47308638       8.76827465      12.40871025       0.00659273       0.01061766       0.00880002
Al      14.85017772      11.35805506       9.62170915       0.00943294      -0.01580521      -0.01215782
Al      13.10000000       9.05000000      15.10173676       0.01258467       0.07378289       0.12497887
Al      13.10000000      11.07500000      17.69866155      -0.00442586      -0.01876520      -1.05500061
Al      15.12500000       9.05000000      17.69866155       0.00464142      -0.04591602      -1.05437567
Al      15.12500000      11.07500000      15.10173676       0.09475713      -0.01071826       0.08785275
Al      13.10000000      13.10000000       5.00000000      -0.00449968      -0.00265458      -0.91700946
Al      13.10000000      15.12500000       7.02500000      -0.17930754       0.17930754       1.76480622
Al      15.12500000      13.10000000       7.02500000      -0.11519130       0.11519130       1.90587178
Al      15.12500000      15.12500000       5.00000000       0.00265458       0.00449968      -0.91700946
Al      12.87661208      13.37575147       9.54407153       0.02208198       0.00359788      -0.00539390
Al      14.63447279      13.59052721      12.22580974       0.01037613      -0.01037613       0.01058072
Al      14.84924853      15.34838792       9.54407153      -0.00359788      -0.02208198      -0.00539390
Al      13.10000000      13.10000000      15.10173676       0.06327037       0.00615785      -0.07533662
Al      13.10000000      15.12500000      17.69866155      -0.00560514       0.00560514      -1.04801526
Al      15.12500000      13.10000000      17.69866155       0.00618784      -0.00618784      -1.04735722
Al      15.12500000      15.12500000      15.10173676      -0.00615785      -0.06327037      -0.07533662
Al      13.10000000      17.15000000       5.00000000      -0.00543525       0.01482601      -0.92669991
Al      13.10000000      19.17500000       7.02500000       0.03520869      -0.03463984       1.89122478
Al      15.12500000      17.15000000       7.02500000       0.02867403      -0.01997079       1.80758415
Al      15.12500000      19.17500000       5.00000000       0.00499273       0.04104424      -0.95266486
Al      12.88369064      17.32788521       9.61955719       0.01280132      -0.00840125      -0.01662843
Al      13.46164879      18.63655036      12.41085072      -0.00029070      -0.01803736      -0.00642062
Al      15.42368193      16.57632510      12.33496864      -0.00378874      -0.00042461       0.00739018
Al      15.46239609      18.50391301       9.72758588       0.00364316       0.00135105      -0.02136835
Al      13.10000000      17.15000000      15.10173676      -0.00617863      -0.04369404       0.04860319
Al      13.10000000      19.17500000      17.69866155      -0.00563136       0.04717867      -1.05220887
Al      15.12500000      17.15000000      17.69866155       0.00609910       0.01838381      -1.05229717
Al      15.12500000      19.17500000      15.10173676      -0.16031066      -0.00224437       0.32168167
Al      13.10000000      21.20000000       5.00000000      -0.00674523      -0.32488008      -0.88944072
Al      13.10000000      23.22500000       7.02500000      -0.00155217       0.07394501       1.51920718
Al      15.12500000      21.20000000       7.02500000      -0.10837910      -0.34264711       1.95663365
Al      15.12500000      23.22500000       5.00000000      -0.00191815       0.17659631      -0.47542171
Al      13.50172903      20.56052122       9.74856128       0.00085672      -0.01652198      -0.01415772
Al      12.78080202      23.14698827      12.52567999      -0.02733741       0.03728213      -0.00787669
Al      14.80465387      21.21657991      12.49086812      -0.03901590       0.01029381       0.00411973
Al      14.66760600      23.19347041       9.78039593      -0.00453114      -0.01646993       0.00719915
Al      13.10000000      21.20000000      15.10173676      -0.09492801      -0.41892400       0.10128657
Al      13.10000000      23.22500000      17.69866155      -0.00806585      -0.21751220      -1.12982026
Al      15.12500000      21.20000000      17.69866155       0.00373489      -0.34700966      -1.11219908
Al      15.12500000      23.22500000      15.10173676      -0.07170846      -0.21758747      -0.13591353
Al      17.15000000       5.00000000       5.00000000       0.02231354      -0.17451814      -0.46998719
Al      17.15000000       7.02500000       7.02500000       0.13474762       0.30208059       1.64061748
Al      19.17500000       5.00000000       7.02500000      -0.08731516      -0.09854424       1.51805943
Al      19.17500000       7.02500000       5.00000000       0.03975839       0.32742499      -0.86812460
Al      17.65773432       4.86708548       9.86503784       0.00332247       0.00185316       0.01367354
Al      17.54438288       6.96678674      12.41054510       0.00148346      -0.01514790      -0.00314815
Al      19.48033283       4.99450276      12.56325852       0.00595472      -0.01536516       0.00590585
Al      18.81905665       7.43487898       9.57753933       0.01149588      -0.00092520      -0.01170242
Al      17.15000000       5.00000000      15.10173676       0.05926969       0.25496497      -0.20539284
Al      17.15000000       7.02500000      17.69866155       0.01557778       0.34770224      -1.10506868
Al      19.17500000       5.00000000      17.69866155       0.04123636       0.21965622      -1.13420522
Al      19.17500000       7.02500000      15.10173676       0.15795973       0.38821617       0.02042198
Al      17.15000000       9.05000000       5.00000000       0.01500349      -0.04457892      -0.93268252
Al      17.15000000      11.07500000       7.02500000      -0.10663632       0.10663632       1.95340553
Al      19.17500000       9.05000000       7.02500000      -0.16727509       0.16727509       1.73068710
Al      19.17500000      11.07500000       5.00000000       0.04457892      -0.01500349      -0.93268252
Al      16.83120700       9.39494070       9.65200151       0.00291015      -0.00749410       0.00234358
Al      16.61293824      11.61206176      12.31598289      -0.00019090       0.00019090      -0.00299314
Al      18.54671799       9.67828201      12.29183317       0.00616916      -0.00616916       0.01728369
Al      18.83005930      11.39379300       9.65200151       0.00749410      -0.00291015       0.00234358
Al      17.15000000       9.05000000      15.10173676       0.03426040      -0.02381883      -0.02879243
Al      17.15000000      11.07500000      17.69866155       0.01712030      -0.01712030      -1.04701312
Al      19.17500000       9.05000000      17.69866155       0.04272430      -0.04272430      -1.04320115
Al      19.17500000      11.07500000      15.10173676       0.02381883      -0.03426040      -0.02879243
Al      17.15000000      13.10000000       5.00000000       0.01415153      -0.00368999      -0.93375625
Al      17.15000000      15.12500000       7.02500000       0.01284347      -0.08859015       1.72494069
Al      19.17500000      13.10000000       7.02500000       0.02914709      -0.00514411       1.96319719
Al      19.17500000      15.12500000       5.00000000       0.04197799       0.00253753      -0.95260874
Al      16.86694494      13.37482228       9.62170915       0.01580521      -0.00943294      -0.01215782
Al      17.43093631      14.62705312      12.44422240      -0.00373003       0.00698548      -0.00719842
Al      19.45672535      12.75191362      12.40871025      -0.01061766      -0.00659273       0.00880002
Al      19.53637490      14.59648639       9.75444892       0.02101208      -0.00004662      -0.00842673
Al      17.15000000      13.10000000      15.10173676       0.01071826      -0.09475713       0.08785275
Al      17.15000000      15.12500000      17.69866155       0.01876520       0.00442586      -1.05500061
Al      19.17500000      13.10000000      17.69866155       0.04591602      -0.00464142      -1.05437567
Al      19.17500000      15.12500000      15.10173676      -0.07378289      -0.01258467       0.12497887
Al      17.15000000      17.15000000       5.00000000       0.01431333       0.01302331      -0.94752826
Al      17.15000000      19.17500000       7.02500000      -0.10144420       0.01617932       1.88321417
Al      19.17500000      17.15000000       7.02500000      -0.05253201      -0.01017426       2.10477685
Al      19.17500000      19.17500000       5.00000000       0.04035982       0.04037583      -0.96540533
Al      17.45027469      16.41053872       9.70610136      -0.02255460      -0.02488520      -0.01141509
Al      16.61335756      19.14673741      12.51934522      -0.02875990       0.01605119      -0.01437426
Al      18.63038237      17.21856247      12.40679610      -0.03065364       0.01732508       0.00329133
Al      18.34907980      19.00305869       9.79223396      -0.02701534      -0.00123110      -0.03327368
Al      17.15000000      17.15000000      15.10173676      -0.09198501      -0.04301050       0.07008969
Al      17.15000000      19.17500000      17.69866155       0.01613753       0.04537491      -1.05853230
Al      19.17500000      17.15000000      17.69866155       0.04661387       0.01721638      -1.05686958
Al      19.17500000      19.17500000      15.10173676      -0.18469116      -0.02126338       0.16606448
Al      17.15000000      21.20000000       5.00000000       0.01483050      -0.32301679      -0.89361618
Al      17.15000000      23.22500000       7.02500000      -0.11404740       0.12281042       1.79678405
Al      19.17500000      21.20000000       7.02500000      -0.01000943      -0.54842643       2.03003816
Al      19.17500000      23.22500000       5.00000000       0.03831499       0.16231101      -0.47405160
Al      16.67551227      21.19050762       9.70817483      -0.01222863       0.01763438       0.00412143
Al      17.09480094      22.98028265      12.38324201       0.00566797      -0.03886782       0.00448843
Al      18.83602160      20.74961151      12.36710860       0.01588593      -0.03237483       0.01169087
Al      19.12730357      22.78329558       9.65691596      -0.00715986      -0.04463682       0.00653149
Al      17.15000000      21.20000000      15.10173676      -0.07008327      -0.38639063      -0.03598175
Al      17.15000000      23.22500000      17.69866155       0.01595029      -0.22211230      -1.11126538
Al      19.17500000      21.20000000      17.69866155       0.04319520      -0.34799591      -1.10343978
Al      19.17500000      23.22500000      15.10173676      -0.13023043      -0.31473720       0.02121499
Al      21.20000000       5.00000000       5.00000000      -0.45251827      -0.06862141      -0.37730231
Al      21.20000000       7.02500000       7.02500000      -0.50715741       0.50715741       1.83942512
Al      23.22500000       5.00000000       7.02500000      -0.62902450       0.62902450       1.23393970
Al      23.22500000       7.02500000       5.00000000       0.06862141       0.45251827      -0.37730231
Al      20.78082607       5.41447337       9.66988438       0.00116564      -0.01039533      -0.00538056
Al      20.49285003       7.73214997      12.19548500       0.00897431      -0.00897431       0.00142881
Al      22.43065968       5.79434032      12.36018043       0.01390541      -0.01390541       0.01439726
Al      22.81052663       7.44417393       9.66988438       0.01039533      -0.00116564      -0.00538056
Al      21.20000000       5.00000000      15.10173676      -0.42624839       0.36069202       0.41924478
Al      21.20000000       7.02500000      17.69866155      -0.34222008       0.34222008      -1.14321591
Al      23.22500000       5.00000000      17.69866155      -0.84642974       0.84642974      -1.02843324
Al      23.22500000       7.02500000      15.10173676      -0.36069202       0.42624839       0.41924478
Al      21.20000000       9.05000000       5.00000000      -0.32742499      -0.03975839      -0.86812460
Al      21.20000000      11.07500000       7.02500000      -0.30208059      -0.13474762       1.64061748
Al      23.22500000       9.05000000       7.02500000       0.09854424       0.08731516       1.51805943
Al      23.22500000      11.07500000       5.00000000       0.17451814      -0.02231354      -0.46998719
Al      20.79012102       9.40594335       9.57753933       0.00092520      -0.01149588      -0.01170242
Al      21.25821326      10.68061712      12.41054510       0.01514790      -0.00148346      -0.00314815
Al      23.23049724       8.74466717      12.56325852       0.01536516      -0.00595472       0.00590585
Al      23.35791452      10.56726568       9.86503784      -0.00185316      -0.00332247       0.01367354
Al      21.20000000       9.05000000      15.10173676      -0.38821617      -0.15795973       0.02042198
Al      21.20000000      11.07500000      17.69866155      -0.34770224      -0.01557778      -1.10506868
Al      23.22500000       9.05000000      17.69866155      -0.21965622      -0.04123636      -1.13420522
Al      23.22500000      11.07500000      15.10173676      -0.25496497      -0.05926969      -0.20539284
Al      21.20000000      13.10000000       5.00000000      -0.32490597      -0.00670467      -0.87241403
Al      21.20000000      15.12500000       7.02500000      -0.46891865      -0.00794238       1.91580624
Al      23.22500000      13.10000000       7.02500000       0.19251723      -0.06323440       1.74678008
Al      23.22500000      15.12500000       5.00000000       0.16021403       0.00779709      -0.49402279
Al      21.41357474      12.58283188       9.58897943       0.00932381      -0.01634526      -0.01176933
Al      20.77713503      15.37133064      12.50541629      -0.03160347       0.00732890      -0.01230182
Al      22.70885022      13.20317691      12.35907868      -0.02526753       0.02372825       0.00848070
Al      22.66250106      15.26737626       9.72801689       0.00355561      -0.00347550      -0.00792265
Al      21.20000000      13.10000000      15.10173676      -0.43704060      -0.02085966       0.09232890
Al      21.20000000      15.12500000      17.69866155      -0.34774107       0.00545329      -1.10986276
Al      23.22500000      13.10000000      17.69866155      -0.22739262      -0.00377750      -1.10172238
Al      23.22500000      15.12500000      15.10173676      -0.33663259       0.04664386      -0.13802248
Al      21.20000000      17.15000000       5.00000000      -0.32145517       0.01593685      -0.89602734
Al      21.20000000      19.17500000       7.02500000      -0.39736541      -0.00952324       1.94574159
Al      23.22500000      17.15000000       7.02500000       0.05415379      -0.07256095       1.58226967
Al      23.22500000      19.17500000       5.00000000       0.17538715       0.03395834      -0.44670447
Al      20.64097047      17.30240762       9.77566109      -0.02662988       0.00582537      -0.00790761
Al      20.86393435      18.85917064      12.56983819       0.01089768      -0.03613356       0.00643314
Al      23.06171534      17.13619954      12.37573559       0.01608236      -0.03743061       0.00614665
Al      23.06522566      18.96051658       9.59579015      -0.00460492      -0.02678274       0.00517289
Al      21.20000000      17.15000000      15.10173676      -0.37374303      -0.03836170       0.22564565