299
Lattice="28.224999999999998 0.0 0.0 0.0 28.224999999999998 0.0 0.0 0.0 20.125" Properties=species:S:1:pos:R:3:forces:R:3 energy=-16370.922611046557 pbc="T T T"
Al       5.00000000       5.00000000       5.00000000       0.42705665       0.42750472      -0.25104271
Al       5.00000000       7.02500000       7.02500000      -0.26554550       0.58792814       0.72800071
Al       7.02500000       5.00000000       7.02500000       0.69864535      -0.35701391       0.81785183
Al       7.02500000       7.02500000       5.00000000       0.33165661       0.32420786      -0.81696682
Al       7.01304195       6.96783399       9.11592005      -0.00399040       0.01322572      -0.00688260
Al       5.88614590       7.48235269      13.36874830       0.01914585       0.02137610      -0.00065924
Al       7.88269933       6.04852258      11.69908262       0.01827880       0.02746383      -0.01469325
Al       9.71856484       8.43807118      11.54372119       0.04371536       0.01012511      -0.00864107
Al       5.00000000       5.00000000      15.85484098       1.07356118       1.21250574       0.41970247
Al       5.00000000       7.02500000      18.66693840       0.36537571       0.49240838      -1.28219929
Al       7.02500000       5.00000000      18.66693840       0.49627748       0.37460169      -1.25668435
Al       7.02500000       7.02500000      15.85484098       0.49833433       0.38566334       1.78084818
Al       5.00000000       9.05000000       5.00000000      -0.12204194      -0.03766011      -0.63559126
Al       5.00000000      11.07500000       7.02500000      -0.71386209       0.07403285       0.65267114
Al       7.02500000       9.05000000       7.02500000      -0.04534503      -0.43436080       0.30980739
Al       7.02500000      11.07500000       5.00000000       0.33526248      -0.02647025      -0.82947889
Al       6.68061348       8.99913820      11.02010869       0.02855793       0.01493765       0.00007967
Al       5.70576801      11.43363755      12.84002636       0.00755069      -0.00374174       0.04716487
Al       7.82313433       9.67125107      13.49733055       0.03660344       0.01412297      -0.00544162
Al       6.88224929      10.93911758       9.02467953       0.02513129      -0.01028674       0.00734079
Al       5.00000000       9.05000000      15.85484098       0.47197377       0.21407501       0.40637751
Al       5.00000000      11.07500000      18.66693840       0.25260005      -0.01854736      -1.17870549
Al       7.02500000       9.05000000      18.66693840       0.35753848      -0.05061141      -1.27762641
Al       7.02500000      11.07500000      15.85484098       0.29009886       0.31337439       0.86831054
Al       5.00000000      13.10000000       5.00000000      -0.14449675      -0.02265766      -0.65943003
Al       5.00000000      15.12500000       7.02500000       0.06104149      -0.09869756       1.50265884
Al       7.02500000      13.10000000       7.02500000      -0.12137038       0.38324269       1.22225972
Al       7.02500000      15.12500000       5.00000000       0.33822444       0.01063437      -0.97855896
Al       6.35205043      13.30725664      10.31147542       0.03044086      -0.05139333       0.04990607
Al       6.19433798      14.73575517      12.98595120       0.01553688      -0.00814637       0.01743655
Al       8.21277881      12.74008616      13.28045361      -0.00264102      -0.01278780       0.00126666
Al       8.81199374      14.79867280      11.11732250       0.03104988      -0.01405249       0.00617181
Al       5.00000000      13.10000000      15.85484098       0.53032515      -0.02107798       0.15063125
Al       5.00000000      15.12500000      18.66693840       0.25337338       0.00382483      -1.17901917
Al       7.02500000      13.10000000      18.66693840       0.35250874      -0.00804446      -1.25717965
Al       7.02500000      15.12500000      15.85484098       0.48806189      -0.00125542       0.75285447
Al       5.00000000      17.15000000       5.00000000      -0.14621335       0.02037612      -0.65598953
Al       5.00000000      19.17500000       7.02500000      -0.08004428      -0.13243194       1.04774847
Al       7.02500000      17.15000000       7.02500000       0.20656444       0.05473897       0.96292049
Al       7.02500000      19.17500000       5.00000000       0.33249131       0.03943536      -0.92317581
Al       6.47075152      16.15676700       9.76999718       0.02549271      -0.06382460      -0.01993564
Al       6.68016124      17.55853916      13.51131725       0.04001742      -0.01544045       0.03182038
Al       9.09873274      15.61834470      13.65781447       0.02034078      -0.00202223       0.01725550
Al       8.48147750      17.71732686      11.47389104      -0.00284880       0.00000141       0.00117029
Al       5.00000000      17.15000000      15.85484098       0.13061843      -0.22435639       0.96590570
Al       5.00000000      19.17500000      18.66693840       0.26056994       0.04123646      -1.17850083
Al       7.02500000      17.15000000      18.66693840       0.34995541       0.01702885      -1.28265836
Al       7.02500000      19.17500000      15.85484098       0.69246368       0.30632143       1.09737558
Al       5.00000000      21.20000000       5.00000000      -0.05289106      -0.43757017      -0.60623748
Al       5.00000000      23.22500000       7.02500000       0.52058939      -0.52058938       0.36373654
Al       7.02500000      21.20000000       7.02500000       0.37118210      -0.37118210       1.23418665
Al       7.02500000      23.22500000       5.00000000       0.43757013       0.05289108      -0.60623748
Al       7.01393499      19.16793074       9.38922060       0.00421572      -0.01598984      -0.02857713
Al       7.62532665      20.59967339      12.91786806       0.02797598      -0.02797604       0.03149578
Al       9.51493331      18.71006670      13.77809427       0.04702077      -0.04702093      -0.04160485
Al       9.05706929      21.21106504       9.38922065       0.01598969      -0.00421575      -0.02857714
Al       5.00000000      21.20000000      15.85484098       0.61898237      -0.69984473       0.84807810
Al       5.00000000      23.22500000      18.66693840       0.90182274      -0.90182273      -0.99820638
Al       7.02500000      21.20000000      18.66693840       0.34099020      -0.34099025      -1.28778088
Al       7.02500000      23.22500000      15.85484098       0.69984469      -0.61898235       0.84807811
Al       9.05000000       5.00000000       5.00000000      -0.03867595      -0.13745880      -0.58857834
Al       9.05000000       7.02500000       7.02500000       0.19412336       0.14945687       0.37406643
Al      11.07500000       5.00000000       7.02500000       0.21590275      -0.12844899       1.22664651
Al      11.07500000       7.02500000       5.00000000      -0.02689422       0.32372350      -0.94132833
Al       9.91628945       6.05215283       9.56157971       0.01240659       0.02458448      -0.02393870
Al       9.12699277       7.13445004      13.87414745       0.02417237       0.01801975       0.00698667
Al      11.24182852       5.83789271      12.32367145       0.01896686       0.01138769      -0.02635115
Al      11.84263636       8.15270416       9.66554477       0.02370903       0.03241321      -0.00816198
Al       9.05000000       5.00000000      15.85484098      -0.01215396       0.06812134       0.64812758
Al       9.05000000       7.02500000      18.66693840      -0.04066875       0.35115516      -1.30808986
Al      11.07500000       5.00000000      18.66693840      -0.01762708       0.26276898      -1.17714268
Al      11.07500000       7.02500000      15.85484098       0.64483964       0.38410207       0.97388568
Al       9.05000000       9.05000000       5.00000000      -0.05619756      -0.04380788      -0.86635563
Al       9.05000000      11.07500000       7.02500000      -0.00159036      -0.11260816       0.56473490
Al      11.07500000       9.05000000       7.02500000       0.22535996      -0.30663104       0.65565819
Al      11.07500000      11.07500000       5.00000000      -0.03035084      -0.01824120      -0.90549494
Al       9.01001719       9.00688995       9.02935022       0.01148811       0.00148463       0.00466318
Al       8.73022402      11.20309187      11.05761137       0.03824289      -0.00602532      -0.01091780
Al      10.54153349      10.66785621      13.15985657       0.02644503      -0.02443114      -0.00142915
Al      11.07384980      10.96023264       9.18729912       0.01218839       0.02823243       0.01197765
Al       9.05000000       9.05000000      15.85484098       0.56008845       0.46699373       1.92394323
Al       9.05000000      11.07500000      18.66693840      -0.04379864      -0.02041064      -1.22456003
Al      11.07500000       9.05000000      18.66693840      -0.01615393      -0.05376823      -1.22166716
Al      11.07500000      11.07500000      15.85484098       0.14860277       0.00034245       1.18807991
Al       9.05000000      13.10000000       5.00000000      -0.04198605      -0.02105601      -0.88627848
Al       9.05000000      15.12500000       7.02500000      -0.23756234      -0.09579927       0.91577070
Al      11.07500000      13.10000000       7.02500000       0.28765510       0.03553068       1.02513305
Al      11.07500000      15.12500000       5.00000000      -0.02803331       0.00554866      -0.91210157
Al       9.04289415      13.09275903       9.01205658       0.01844905       0.00811248       0.01216185
Al      11.00557488      13.44083263      13.78471100       0.00394281      -0.03087313      -0.00293227
Al      11.22866539      12.92819710      11.22416077       0.03870219      -0.00174393      -0.00248941
Al      11.15361159      15.11667025       9.34094909       0.02834243      -0.03172699      -0.01906598
Al       9.05000000      13.10000000      15.85484098      -0.09161149       0.02555957       1.80543157
Al       9.05000000      15.12500000      18.66693840      -0.04133890      -0.00004438      -1.25172909
Al      11.07500000      13.10000000      18.66693840      -0.01444837      -0.00608936      -1.26387716
Al      11.07500000      15.12500000      15.85484098       0.30891142       0.99697228       1.50942408
Al       9.05000000      17.15000000       5.00000000      -0.03111921       0.02510754      -0.88227170
Al       9.05000000      19.17500000       7.02500000      -0.27742935       0.27742918       1.03757233
Al      11.07500000      17.15000000       7.02500000       0.50971225      -0.50971250       0.27665861
Al      11.07500000      19.17500000       5.00000000      -0.02510773       0.03111910      -0.88227173
Al       9.15582999      17.06220349       9.02635031       0.03016310      -0.02457378       0.00524187
Al      11.43185720      16.79314279      12.01588036       0.00616345      -0.00616373      -0.03750962
Al      13.45394891      14.77105118      12.89531184       0.01089273      -0.01089299       0.04289886
Al      11.16279645      19.06917001       9.02635032       0.02457351      -0.03016325       0.00524188
Al       9.05000000      17.15000000      15.85484098      -0.37845426      -0.09811629       2.76253942
Al       9.05000000      19.17500000      18.66693840      -0.04310093       0.04310082      -1.25172876
Al      11.07500000      17.15000000      18.66693840      -0.01833017       0.01832999      -1.22709961
Al      11.07500000      19.17500000      15.85484098       0.09811621       0.37845420       2.76253929
Al       9.05000000      21.20000000       5.00000000      -0.03943547      -0.33249135      -0.92317583
Al       9.05000000      23.22500000       7.02500000       0.13243183       0.08004431       1.04774847
Al      11.07500000      21.20000000       7.02500000      -0.05473920      -0.20656448       0.96292041
Al      11.07500000      23.22500000       5.00000000      -0.02037625       0.14621342      -0.65598956
Al      10.50767324      19.74352254      11.47389108      -0.00000165       0.00284868       0.00117029
Al      10.66646091      21.54483874      13.51131731       0.01544030      -0.04001744       0.03182041
Al      12.60665541      19.12626713      13.65781449       0.00202200      -0.02034098       0.01725553
Al      12.06823310      21.75424846       9.76999711       0.06382441      -0.02549265      -0.01993565
Al       9.05000000      21.20000000      15.85484098      -0.30632158      -0.69246370       1.09737560
Al       9.05000000      23.22500000      18.66693840      -0.04123655      -0.26056991      -1.17850082
Al      11.07500000      21.20000000      18.66693840      -0.01702901      -0.34995543      -1.28265833
Al      11.07500000      23.22500000      15.85484098       0.22435624      -0.13061827       0.96590581
Al      13.10000000       5.00000000       5.00000000      -0.00336308      -0.16957926      -0.57680038
Al      13.10000000       7.02500000       7.02500000       0.05645335       0.53705932       1.69952294
Al      15.12500000       5.00000000       7.02500000      -0.03679565       0.00863325       1.53392402
Al      15.12500000       7.02500000       5.00000000       0.01694277       0.32429033      -0.98627399
Al      13.14604150       5.55268091       9.63086964       0.00514732       0.01693068      -0.01598808
Al      12.17369773       8.38758200      13.18800885       0.02873564      -0.01660213       0.01599820
Al      14.30873224       6.36553525      12.68775683       0.00250881       0.01628553      -0.01308479
Al      14.60565772       8.10585837       9.98564850       0.00792041       0.01907970       0.01517416
Al      13.10000000       5.00000000      15.85484098      -0.09032990       0.53513838       0.15085923
Al      13.10000000       7.02500000      18.66693840      -0.00041752       0.35288467      -1.25498895
Al      15.12500000       5.00000000      18.66693840       0.00646616       0.25918742      -1.16904249
Al      15.12500000       7.02500000      15.85484098       0.06761832       0.31298086       0.42801013
Al      13.10000000       9.05000000       5.00000000      -0.00458154      -0.03888439      -1.03288111
Al      13.10000000      11.07500000       7.02500000      -0.16299468      -0.38636106       1.20669169
Al      15.12500000       9.05000000       7.02500000      -0.30958304      -0.51332910       1.25178403
Al      15.12500000      11.07500000       5.00000000       0.02127187      -0.01461123      -0.89673367
Al      13.11064954      10.37680543      11.09673958      -0.00494987       0.01653508       0.00986917
Al      13.38271081      11.64535753      13.49546880       0.01911403      -0.01122327       0.01061361
Al      14.96880406       9.11474813      13.66548508       0.01960257       0.01148833      -0.00117132
Al      15.12580653      11.02568809       9.09300647      -0.01132325      -0.00285907       0.01641910
Al      13.10000000       9.05000000      15.85484098      -0.26732473       0.24651536       1.23728267
Al      13.10000000      11.07500000      18.66693840       0.00009502      -0.01956890      -1.23994491
Al      15.12500000       9.05000000      18.66693840       0.00657327      -0.04754937      -1.24615675
Al      15.12500000      11.07500000      15.85484098      -0.25219696      -0.13796159       2.02079800
Al      13.10000000      13.10000000       5.00000000       0.00428719      -0.01496278      -0.90800801
Al      13.10000000      15.12500000       7.02500000      -0.05627462       0.05627438       1.08052534
Al      15.12500000      13.10000000       7.02500000      -0.04739317       0.04739254       0.69824586
Al      15.12500000      15.12500000       5.00000000       0.01496257      -0.00428742      -0.90800804
Al      13.15003773      13.07235636       9.22094197      -0.00329692      -0.01111263      -0.01470644
Al      15.19239208      13.03260759      11.32840347      -0.00919419       0.00919368      -0.02783208
Al      15.15264350      15.07496220       9.22094210       0.01111223       0.00329658      -0.01470639
Al      13.10000000      13.10000000      15.85484098       0.29242425       0.46665529       1.32772419
Al      13.10000000      15.12500000      18.66693840      -0.00042170       0.00042149      -1.22286929
Al      15.12500000      13.10000000      18.66693840       0.01200363      -0.01200385      -1.23109647
Al      15.12500000      15.12500000      15.85484098      -0.46665548      -0.29242464       1.32772425
Al      13.10000000      17.15000000       5.00000000      -0.00554889       0.02803312      -0.91210161
Al      13.10000000      19.17500000       7.02500000       0.09579889       0.23756228       0.91577069
Al      15.12500000      17.15000000       7.02500000      -0.03553107      -0.28765540       1.02513308
Al      15.12500000      19.17500000       5.00000000       0.02105583       0.04198598      -0.88627858
Al      13.10832975      17.07138847       9.34094905       0.03172668      -0.02834264      -0.01906599
Al      14.78416764      17.21942499      13.78471112       0.03087297      -0.00394311      -0.00293220
Al      15.29680279      16.99633471      11.22416080       0.00174359      -0.03870239      -0.00248940
Al      15.13224095      19.18210591       9.01205658      -0.00811276      -0.01844911       0.01216184
Al      13.10000000      17.15000000      15.85484098      -0.99697236      -0.30891171       1.50942388
Al      13.10000000      19.17500000      18.66693840       0.00004419       0.04133881      -1.25172904
Al      15.12500000      17.15000000      18.66693840       0.00608917       0.01444821      -1.26387711
Al      15.12500000      19.17500000      15.85484098      -0.02555984       0.09161162       1.80543173
Al      13.10000000      21.20000000       5.00000000      -0.01063456      -0.33822442      -0.97855902
Al      13.10000000      23.22500000       7.02500000       0.09869742      -0.06104133       1.50265874
Al      15.12500000      21.20000000       7.02500000      -0.38324285       0.12137057       1.22225966
Al      15.12500000      23.22500000       5.00000000       0.02265754       0.14449690      -0.65943011
Al      13.42632719      19.41300629      11.11732249       0.01405219      -0.03104996       0.00617181
Al      13.48924490      22.03066194      12.98595123       0.00814620      -0.01553678       0.01743657
Al      15.48491392      20.01222105      13.28045357       0.01278761       0.00264097       0.00126667
Al      14.91774345      21.87294956      10.31147552       0.05139317      -0.03044070       0.04990609
Al      13.10000000      21.20000000      15.85484098       0.00125520      -0.48806195       0.75285458
Al      13.10000000      23.22500000      18.66693840      -0.00382496      -0.25337328      -1.17901913
Al      15.12500000      21.20000000      18.66693840       0.00804431      -0.35250870      -1.25717958
Al      15.12500000      23.22500000      15.85484098       0.02107786      -0.53032497       0.15063133
Al      17.15000000       5.00000000       5.00000000       0.01986268      -0.15051038      -0.62616097
Al      17.15000000       7.02500000       7.02500000      -0.04819378      -0.06984736       1.11323173
Al      19.17500000       5.00000000       7.02500000      -0.19974258      -0.22084719       0.99987597
Al      19.17500000       7.02500000       5.00000000       0.03902464       0.33008461      -0.92225581
Al      16.47098048       5.98517009       9.85128379      -0.00980787       0.01482208      -0.02385236
Al      17.07857418       7.45868378      12.56243897      -0.00863891       0.01732403      -0.01948428
Al      18.82615402       5.39803517      13.29570735      -0.00880866       0.01282084       0.02569341
Al      17.23718161       8.91411445       9.10040556      -0.00471790       0.00975272       0.01599047
Al      17.15000000       5.00000000      15.85484098      -0.10777561       0.42091319       0.51204892
Al      17.15000000       7.02500000      18.66693840       0.01761384       0.35254496      -1.25009943
Al      19.17500000       5.00000000      18.66693840       0.03927560       0.25480044      -1.21460796
Al      19.17500000       7.02500000      15.85484098      -0.28072982       0.60677288       0.82727539
Al      17.15000000       9.05000000       5.00000000       0.02407740      -0.03788322      -0.90084796
Al      17.15000000      11.07500000       7.02500000       0.17206727      -0.17206636       0.77694205
Al      19.17500000       9.05000000       7.02500000       0.51071979      -0.51071835       1.04683987
Al      19.17500000      11.07500000       5.00000000       0.03788308      -0.02407761      -0.90084817
Al      16.23120229      10.03617517      11.42925848      -0.01749955       0.02764917      -0.00112920
Al      16.37782498      11.84717442      13.57721742      -0.02441627       0.02441571      -0.02450691
Al      18.42501936       9.79998209      13.58901336      -0.02673381       0.02673428      -0.01574877
Al      18.18882198      11.99379720      11.42925783      -0.02765070       0.01749901      -0.00112952
Al      17.15000000       9.05000000      15.85484098      -0.48963856      -0.33618268       1.32672498
Al      17.15000000      11.07500000      18.66693840       0.02042859      -0.02042877      -1.24844264
Al      19.17500000       9.05000000      18.66693840       0.04381905      -0.04381916      -1.22646714
Al      19.17500000      11.07500000      15.85484098       0.33618398       0.48963972       1.32673055
Al      17.15000000      13.10000000       5.00000000       0.01461102      -0.02127206      -0.89673369
Al      17.15000000      15.12500000       7.02500000       0.38636027       0.16299599       1.20669029
Al      19.17500000      13.10000000       7.02500000       0.51333157       0.30958186       1.25178693
Al      19.17500000      15.12500000       5.00000000       0.03888428       0.00458138      -1.03288125
Al      17.19931217      13.09919394       9.09300592       0.00285899       0.01132326       0.01641892
Al      16.57964272      14.84228870      13.49546889       0.01122314      -0.01911456       0.01061365
Al      19.11025231      13.25619453      13.66548449      -0.01148822      -0.01960345      -0.00117165
Al      17.84819401      15.11435047      11.09673943      -0.01653556       0.00494961       0.00986916
Al      17.15000000      13.10000000      15.85484098       0.13796206       0.25219561       2.02079563
Al      17.15000000      15.12500000      18.66693840       0.01956874      -0.00009520      -1.23994482
Al      19.17500000      13.10000000      18.66693840       0.04754929      -0.00657347      -1.24615662
Al      19.17500000      15.12500000      15.85484098      -0.24651553       0.26732242       1.23727941
Al      17.15000000      17.15000000       5.00000000       0.01824106       0.03035068      -0.90549504
Al      17.15000000      19.17500000       7.02500000       0.11260803       0.00159042       0.56473472
Al      19.17500000      17.15000000       7.02500000       0.30663073      -0.22535970       0.65565737
Al      19.17500000      19.17500000       5.00000000       0.04380786       0.05619753      -0.86635579
Al      17.26476719      17.15115024       9.18729903      -0.02823273      -0.01218858       0.01197760
Al      17.02190820      19.49477583      11.05761138       0.00602517      -0.03824297      -0.01091778
Al      17.55714405      17.68346616      13.15985657       0.02443112      -0.02644534      -0.00142909
Al      19.21811007      19.21498270       9.02935025      -0.00148465      -0.01148818       0.00466317
Al      17.15000000      17.15000000      15.85484098      -0.00034261      -0.14860276       1.18808037
Al      17.15000000      19.17500000      18.66693840       0.02041053       0.04379860      -1.22455993
Al      19.17500000      17.15000000      18.66693840       0.05376819       0.01615382      -1.22166703
Al      19.17500000      19.17500000      15.85484098      -0.46699370      -0.56008831       1.92394366
Al      17.15000000      21.20000000       5.00000000       0.02647015      -0.33526240      -0.82947903
Al      17.15000000      23.22500000       7.02500000      -0.07403294       0.71386220       0.65267124
Al      19.17500000      21.20000000       7.02500000       0.43436080       0.04534496       0.30980750
Al      19.17500000      23.22500000       5.00000000       0.03766011       0.12204213      -0.63559136
Al      17.28588244      21.34275066       9.02467954       0.01028663      -0.02513112       0.00734079
Al      16.79136253      22.51923193      12.84002647       0.00374166      -0.00755049       0.04716489
Al      18.55374889      20.40186547      13.49733049      -0.01412303      -0.03660342      -0.00544159
Al      19.22586183      21.54438631      11.02010871      -0.01493760      -0.02855778       0.00007967
Al      17.15000000      21.20000000      15.85484098      -0.31337434      -0.29009881       0.86831045
Al      17.15000000      23.22500000      18.66693840       0.01854729      -0.25259988      -1.17870543
Al      19.17500000      21.20000000      18.66693840       0.05061140      -0.35753840      -1.27762631
Al      19.17500000      23.22500000      15.85484098      -0.21407501      -0.47197355       0.40637755
Al      21.20000000       5.00000000       5.00000000      -0.44301910      -0.04738626      -0.59312448
Al      21.20000000       7.02500000       7.02500000      -0.36302306       0.36302494       1.14963269
Al      23.22500000       5.00000000       7.02500000      -0.55388105       0.55388097       0.43514019
Al      23.22500000       7.02500000       5.00000000       0.04738630       0.44301902      -0.59312459
Al      19.31801962       6.77233895       9.42757477      -0.01329347       0.01779995      -0.00668120
Al      19.18713304       9.03786404      11.13080380      -0.01499078       0.01498931      -0.00930950
Al      20.55854203       7.66645818      13.29111925      -0.02220878       0.02220878       0.00107790
Al      21.45266081       8.90698107       9.42757620      -0.01780004       0.01329365      -0.00668058
Al      21.20000000       5.00000000      15.85484098      -0.82224580       0.59559849       0.56618275
Al      21.20000000       7.02500000      18.66693840      -0.34781764       0.34781759      -1.29884833
Al      23.22500000       5.00000000      18.66693840      -0.90432518       0.90432518      -0.99452075
Al      23.22500000       7.02500000      15.85484098      -0.59559861       0.82224608       0.56618232
Al      21.20000000       9.05000000       5.00000000      -0.33008466      -0.03902475      -0.92225602
Al      21.20000000      11.07500000       7.02500000       0.06984534       0.04819246       1.11323011
Al      23.22500000       9.05000000       7.02500000       0.22084547       0.19974255       0.99987846
Al      23.22500000      11.07500000       5.00000000       0.15051051      -0.01986270      -0.62616066
Al      19.31088609      10.98781812       9.10040649      -0.00975262       0.00471753       0.01599097
Al      20.76631542      11.14642577      12.56243157      -0.01732448       0.00863878      -0.01948765
Al      22.82696361       9.39884800      13.29570764      -0.01282131       0.00880953       0.02569339
Al      22.23983174      11.75402071       9.85128095      -0.01482130       0.00980824      -0.02385356
Al      21.20000000       9.05000000      15.85484098      -0.60677358       0.28072923       0.82727728
Al      21.20000000      11.07500000      18.66693840      -0.35254497      -0.01761399      -1.25009932
Al      23.22500000       9.05000000      18.66693840      -0.25480042      -0.03927567      -1.21460791
Al      23.22500000      11.07500000      15.85484098      -0.42091231       0.10777681       0.51205144
Al      21.20000000      13.10000000       5.00000000      -0.32429017      -0.01694300      -0.98627405
Al      21.20000000      15.12500000       7.02500000      -0.53705896      -0.05645437       1.69952340
Al      23.22500000      13.10000000       7.02500000      -0.00863191       0.03679703       1.53392087
Al      23.22500000      15.12500000       5.00000000       0.16957944       0.00336290      -0.57680044
Al      20.11914167      13.61934159       9.98565073      -0.01907968      -0.00792097       0.01517536
Al      19.83741808      16.05130123      13.18800842       0.01660215      -0.02873636       0.01599803
Al      21.85946586      13.91626694      12.68775806      -0.01628488      -0.00250942      -0.01308416
Al      22.67231885      15.07895840       9.63086983      -0.01693059      -0.00514753      -0.01598793
Al      21.20000000      13.10000000      15.85484098      -0.31298091      -0.06761873       0.42801093
Al      21.20000000      15.12500000      18.66693840      -0.35288460       0.00041738      -1.25498886
Al      23.22500000      13.10000000      18.66693840      -0.25918731      -0.00646627      -1.16904248
Al      23.22500000      15.12500000      15.85484098      -0.53513796       0.09032988       0.15085961
Al      21.20000000      17.15000000       5.00000000      -0.32372343       0.02689412      -0.94132846
Al      21.20000000      19.17500000       7.02500000      -0.14945664      -0.19412335       0.37406629
Al      23.22500000      17.15000000       7.02500000       0.12844933      -0.21590292       1.22664656
Al      23.22500000      19.17500000       5.00000000       0.13745899       0.03867595      -0.58857847
Al      20.07229544      16.38236299       9.66554446      -0.03241344      -0.02370957      -0.00816212
Al      21.09054990      19.09800710      13.87414740      -0.01801962      -0.02417247       0.00698670
Al      22.38710727      16.98317115      12.32367162      -0.01138748      -0.01896717      -0.02635103
Al      22.17284686      18.30871017       9.56157975      -0.02458437      -0.01240682      -0.02393868
Al      21.20000000      17.15000000      15.85484098      -0.38410224      -0.64484016       0.97388524