299
Lattice="28.224999999999998 0.0 0.0 0.0 28.224999999999998 0.0 0.0 0.0 20.125" Properties=species:S:1:pos:R:3:forces:R:3 energy=-16391.09675960858 pbc="T T T"
Al       5.00000000       5.00000000       5.00000000       0.39417253       0.39251124      -0.06893873
Al       5.00000000       7.02500000       7.02500000      -0.00931391       0.59432021       1.39764075
Al       7.02500000       5.00000000       7.02500000       0.65196249      -0.03124897       1.42540077
Al       7.02500000       7.02500000       5.00000000       0.31839628       0.31999041      -0.84963933
Al       5.84535711       5.81371456       9.75225603       0.01278546       0.02220692      -0.04896048
Al       5.49688841       7.43247536      12.50046537       0.01631878       0.01581457       0.00936693
Al       7.51014207       5.31822750      12.43155569       0.01344930       0.01594160      -0.00561856
Al       7.86457380       7.59081727       9.89022886       0.03836905       0.00006173       0.02461972
Al       5.00000000       5.00000000      15.19262913       1.11805347       1.08597400      -0.07254177
Al       5.00000000       7.02500000      17.81552317       0.33827514       0.48520234      -1.18233820
Al       7.02500000       5.00000000      17.81552317       0.48547780       0.33671889      -1.18263028
Al       7.02500000       7.02500000      15.19262913       0.55876310       0.43548915       0.12509369
Al       5.00000000       9.05000000       5.00000000      -0.16183437      -0.03581620      -0.48553060
Al       5.00000000      11.07500000       7.02500000      -0.11518144       0.10710114       1.81675212
Al       7.02500000       9.05000000       7.02500000       0.53040955       0.00661584       2.08680198
Al       7.02500000      11.07500000       5.00000000       0.32636653      -0.01074374      -0.90428014
Al       5.44329054       9.09782440       9.69326694       0.06068522       0.00972866      -0.00699082
Al       5.24598805      11.13005303      12.44690767       0.05704856      -0.00323166       0.00659736
Al       7.47624248       9.38861588      12.43013828       0.04914018      -0.00606490      -0.00085549
Al       7.03404749      11.54987026       9.74540429      -0.02158859       0.03396941      -0.00368455
Al       5.00000000       9.05000000      15.19262913       0.32757550       0.12221691       0.03067649
Al       5.00000000      11.07500000      17.81552317       0.22686605      -0.01416551      -1.09384098
Al       7.02500000       9.05000000      17.81552317       0.34816798      -0.04080565      -1.10385797
Al       7.02500000      11.07500000      15.19262913       0.38576187       0.06681793      -0.03021494
Al       5.00000000      13.10000000       5.00000000      -0.17271463       0.00319049      -0.48569206
Al       5.00000000      15.12500000       7.02500000      -0.06984692      -0.00080704       1.57087301
Al       7.02500000      13.10000000       7.02500000       0.34324781       0.10211689       2.01912942
Al       7.02500000      15.12500000       5.00000000       0.32966272       0.00708735      -0.89934368
Al       5.03221197      13.55783897       9.81825459       0.02298850       0.02424565       0.00393277
Al       5.07736594      15.44512228      12.59051207      -0.02776197       0.04371060      -0.00588685
Al       7.00822687      13.42116371      12.55512331      -0.00908951       0.05707643      -0.00160541
Al       7.66486443      14.72307196       9.78599367       0.04053651      -0.00965117      -0.01656322
Al       5.00000000      13.10000000      15.19262913       0.23590893       0.07034746      -0.11936254
Al       5.00000000      15.12500000      17.81552317       0.22376932       0.00844024      -1.11124382
Al       7.02500000      13.10000000      17.81552317       0.34790765      -0.00189255      -1.11262757
Al       7.02500000      15.12500000      15.19262913       0.41347878       0.08937756       0.10151818
Al       5.00000000      17.15000000       5.00000000      -0.15990236       0.01193117      -0.49744272
Al       5.00000000      19.17500000       7.02500000      -0.10509613      -0.16691889       1.56785213
Al       7.02500000      17.15000000       7.02500000       0.40907942      -0.03363523       1.83894656
Al       7.02500000      19.17500000       5.00000000       0.32814602       0.04126060      -0.86151150
Al       5.59608082      16.77893176       9.74736469       0.03985481      -0.01487855      -0.02586648
Al       5.57479162      18.81545821      12.39660941       0.02768084      -0.01286040      -0.00166848
Al       7.62003673      16.79018985      12.39591805       0.03098108      -0.01349694      -0.01165734
Al       7.05662662      19.23072580       9.59939237      -0.00490058       0.00470226      -0.01062988
Al       5.00000000      17.15000000      15.19262913       0.32347822       0.08679724       0.17344330
Al       5.00000000      19.17500000      17.81552317       0.23668925       0.03810333      -1.08510580
Al       7.02500000      17.15000000      17.81552317       0.34849392       0.01511515      -1.10361130
Al       7.02500000      19.17500000      15.19262913       0.40038395       0.01791811       0.05408887
Al       5.00000000      21.20000000       5.00000000      -0.08370770      -0.44431355      -0.30965238
Al       5.00000000      23.22500000       7.02500000       0.47372947      -0.47372947       1.00438520
Al       7.02500000      21.20000000       7.02500000       0.36532384      -0.36532384       1.70799099
Al       7.02500000      23.22500000       5.00000000       0.44431355       0.08370770      -0.30965238
Al       5.07083045      21.09950761       9.47610632       0.01004433      -0.00257960      -0.04391710
Al       6.62303757      21.60196243      12.34888929      -0.00658418       0.00658418      -0.02341698
Al       8.63691935      19.58808065      12.41192241       0.00117342      -0.00117342      -0.00474383
Al       7.12549239      23.15416955       9.47610632       0.00257960      -0.01004433      -0.04391710
Al       5.00000000      21.20000000      15.19262913       0.43777866      -0.69164301       0.21597210
Al       5.00000000      23.22500000      17.81552317       0.87023792      -0.87023792      -0.94365988
Al       7.02500000      21.20000000      17.81552317       0.33984550      -0.33984550      -1.14413259
Al       7.02500000      23.22500000      15.19262913       0.69164301      -0.43777866       0.21597210
Al       9.05000000       5.00000000       5.00000000      -0.03337551      -0.17504785      -0.45980332
Al       9.05000000       7.02500000       7.02500000       0.00273989       0.39193171       2.01581971
Al      11.07500000       5.00000000       7.02500000       0.06237670      -0.05492249       1.61915239
Al      11.07500000       7.02500000       5.00000000      -0.01435128       0.32534371      -0.90781804
Al       9.26524154       5.16022041       9.63146429       0.03766650       0.01075948      -0.01024273
Al       9.36644739       7.36111181      12.63528553       0.04828662       0.00029983       0.01838120
Al      11.08957376       5.16311102      12.43924420       0.04246798      -0.01076836       0.00239951
Al      10.92217990       7.58466447       9.81345443      -0.00665713       0.04818831      -0.00805733
Al       9.05000000       5.00000000      15.19262913       0.11310104       0.29778872       0.02757878
Al       9.05000000       7.02500000      17.81552317      -0.04029748       0.34856987      -1.11181055
Al      11.07500000       5.00000000      17.81552317      -0.01694134       0.22625112      -1.09610921
Al      11.07500000       7.02500000      15.19262913       0.03461710       0.37243688       0.22190184
Al       9.05000000       9.05000000       5.00000000      -0.03743895      -0.03493210      -0.97694593
Al       9.05000000      11.07500000       7.02500000      -0.01364835       0.09451909       1.96047402
Al      11.07500000       9.05000000       7.02500000       0.00879814       0.05009063       2.16067400
Al      11.07500000      11.07500000       5.00000000      -0.01024543      -0.00801928      -0.95790920
Al       9.22160578       9.87673732       9.82978111      -0.00011611       0.05733348      -0.03917084
Al       9.07788337      11.61240691      12.58358371      -0.01437571       0.05553942      -0.01042053
Al      11.00589999       9.59542304      12.47004769      -0.01765320       0.05956745      -0.01010134
Al      11.81517067      10.77486933       9.74310334       0.04517367       0.01731015      -0.02018129
Al       9.05000000       9.05000000      15.19262913       0.01857254       0.17510319       0.16156431
Al       9.05000000      11.07500000      17.81552317      -0.04301085      -0.01333175      -1.06159589
Al      11.07500000       9.05000000      17.81552317      -0.01612428      -0.04284865      -1.05979557
Al      11.07500000      11.07500000      15.19262913       0.03987112       0.08684934       0.06593566
Al       9.05000000      13.10000000       5.00000000      -0.03597454      -0.00164124      -0.96250143
Al       9.05000000      15.12500000       7.02500000       0.03245693      -0.02940951       1.96243677
Al      11.07500000      13.10000000       7.02500000       0.01841386      -0.02214309       1.88292211
Al      11.07500000      15.12500000       5.00000000      -0.01113511       0.00562110      -0.93592792
Al       9.72108215      12.76221028       9.76478806       0.02055043      -0.00627105      -0.02406451
Al       9.58894197      14.76320918      12.47415971       0.03667503      -0.00342024      -0.00786757
Al      11.64882712      12.80125751      12.39761882       0.01841285       0.00504442      -0.00598133
Al      10.89695059      15.34125233       9.65577588       0.00136558      -0.00170447      -0.01822130
Al       9.05000000      13.10000000      15.19262913       0.00111266       0.14997899       0.30610443
Al       9.05000000      15.12500000      17.81552317      -0.04450254       0.00660788      -1.05629837
Al      11.07500000      13.10000000      17.81552317      -0.01571330      -0.00377240      -1.05705763
Al      11.07500000      15.12500000      15.19262913       0.04066749       0.00489935       0.04919145
Al       9.05000000      17.15000000       5.00000000      -0.03692053       0.01658123      -0.92660001
Al       9.05000000      19.17500000       7.02500000      -0.09400277       0.09400277       1.85464197
Al      11.07500000      17.15000000       7.02500000      -0.07208320       0.07208320       1.96209714
Al      11.07500000      19.17500000       5.00000000      -0.01658123       0.03692053      -0.92660001
Al       8.93918191      17.27659483       9.56547548       0.00066662       0.00471531      -0.02149160
Al      10.64097021      17.58402979      12.31613255       0.00962296      -0.00962296      -0.01465281
Al      12.63521187      15.58978813      12.39569015       0.00558837      -0.00558837      -0.00653017
Al      10.94840517      19.28581809       9.56547548      -0.00471531      -0.00066662      -0.02149160
Al       9.05000000      17.15000000      15.19262913       0.02196421       0.02518851      -0.05505416
Al       9.05000000      19.17500000      17.81552317      -0.04190761       0.04190761      -1.05036581
Al      11.07500000      17.15000000      17.81552317      -0.01731977       0.01731977      -1.05084587
Al      11.07500000      19.17500000      15.19262913      -0.02518851      -0.02196421      -0.05505416
Al       9.05000000      21.20000000       5.00000000      -0.04126060      -0.32814602      -0.86151150
Al       9.05000000      23.22500000       7.02500000       0.16691889       0.10509613       1.56785213
Al      11.07500000      21.20000000       7.02500000       0.03363523      -0.40907942       1.83894656
Al      11.07500000      23.22500000       5.00000000      -0.01193117       0.15990236      -0.49744272
Al       8.99427420      21.16837338       9.59939237      -0.00470226       0.00490058      -0.01062988
Al       9.40954179      22.65020838      12.39660941       0.01286040      -0.02768084      -0.00166848
Al      11.43481015      20.60496327      12.39591805       0.01349694      -0.03098108      -0.01165734
Al      11.44606824      22.62891918       9.74736469       0.01487855      -0.03985481      -0.02586648
Al       9.05000000      21.20000000      15.19262913      -0.01791811      -0.40038395       0.05408887
Al       9.05000000      23.22500000      17.81552317      -0.03810333      -0.23668925      -1.08510580
Al      11.07500000      21.20000000      17.81552317      -0.01511515      -0.34849392      -1.10361130
Al      11.07500000      23.22500000      15.19262913      -0.08679724      -0.32347822       0.17344330
Al      13.10000000       5.00000000       5.00000000      -0.00759618      -0.15920595      -0.50467805
Al      13.10000000       7.02500000       7.02500000       0.00782532       0.45964460       1.97946813
Al      15.12500000       5.00000000       7.02500000       0.06136901      -0.17967412       1.76828534
Al      15.12500000       7.02500000       5.00000000       0.00529657       0.32860779      -0.88538950
Al      12.95752222       5.56268718       9.76496550      -0.00186784       0.01174844      -0.01789452
Al      12.85342795       7.44853417      12.56975561      -0.01336910       0.05174754      -0.00856413
Al      15.02131199       5.51701073      12.42247528      -0.02930876       0.04448540       0.00522678
Al      15.64301967       6.81084747       9.62429225       0.02956574      -0.02547973      -0.03394941
Al      13.10000000       5.00000000      15.19262913      -0.04747052       0.34739397      -0.11774868
Al      13.10000000       7.02500000      17.81552317      -0.00581645       0.34876534      -1.10966673
Al      15.12500000       5.00000000      17.81552317       0.00310688       0.23086806      -1.08481848
Al      15.12500000       7.02500000      15.19262913       0.01934958       0.43249783       0.09368190
Al      13.10000000       9.05000000       5.00000000      -0.00249703      -0.03518153      -0.96416349
Al      13.10000000      11.07500000       7.02500000       0.07884032      -0.00539727       1.80729552
Al      15.12500000       9.05000000       7.02500000       0.00333985      -0.02502164       2.02987703
Al      15.12500000      11.07500000       5.00000000       0.00090133      -0.00783086      -0.94461380
Al      13.62881690       8.68776992       9.79216050       0.01704506      -0.03080475      -0.00483241
Al      13.59804741      10.79395867      12.50793537       0.00547541       0.00549914      -0.00557956
Al      15.47348835       8.76823080      12.47220833       0.01486482       0.00758200       0.00210813
Al      14.85016779      11.35787982       9.65788729      -0.00470142       0.00112763      -0.01780074
Al      13.10000000       9.05000000      15.19262913       0.00908486       0.07093254       0.12420570
Al      13.10000000      11.07500000      17.81552317      -0.00440660      -0.01425962      -1.05927241
Al      15.12500000       9.05000000      17.81552317       0.00318649      -0.04173810      -1.05714261
Al      15.12500000      11.07500000      15.19262913       0.08555588      -0.00775104       0.08799269
Al      13.10000000      13.10000000       5.00000000      -0.00424246       0.00138405      -0.92692810
Al      13.10000000      15.12500000       7.02500000      -0.16539581       0.16539581       1.83545122
Al      15.12500000      13.10000000       7.02500000      -0.10921515       0.10921515       1.96679182
Al      15.12500000      15.12500000       5.00000000      -0.00138405       0.00424246      -0.92692810
Al      12.87688047      13.37600345       9.57946601       0.00933604       0.01890114      -0.01708915
Al      14.63446859      13.59053141      12.28740301      -0.00505090       0.00505090      -0.00530849
Al      14.84899655      15.34811953       9.57946601      -0.01890114      -0.00933604      -0.01708915
Al      13.10000000      13.10000000      15.19262913       0.05669701       0.00680796      -0.07005689
Al      13.10000000      15.12500000      17.81552317      -0.00529830       0.00529830      -1.05387612
Al      15.12500000      13.10000000      17.81552317       0.00372893      -0.00372893      -1.05291475
Al      15.12500000      15.12500000      15.19262913      -0.00680796      -0.05669701      -0.07005689
Al      13.10000000      17.15000000       5.00000000      -0.00562110       0.01113511      -0.93592792
Al      13.10000000      19.17500000       7.02500000       0.02940951      -0.03245693       1.96243677
Al      15.12500000      17.15000000       7.02500000       0.02214309      -0.01841386       1.88292211
Al      15.12500000      19.17500000       5.00000000       0.00164124       0.03597454      -0.96250143
Al      12.88374767      17.32804941       9.65577588       0.00170447      -0.00136558      -0.01822130
Al      13.46179082      18.63605803      12.47415971       0.00342024      -0.03667503      -0.00786757
Al      15.42374249      16.57617288      12.39761882      -0.00504442      -0.01841285      -0.00598133
Al      15.46278972      18.50391785       9.76478806       0.00627105      -0.02055043      -0.02406451
Al      13.10000000      17.15000000      15.19262913      -0.00489935      -0.04066749       0.04919145
Al      13.10000000      19.17500000      17.81552317      -0.00660788       0.04450254      -1.05629837
Al      15.12500000      17.15000000      17.81552317       0.00377240       0.01571330      -1.05705763
Al      15.12500000      19.17500000      15.19262913      -0.14997899      -0.00111266       0.30610443
Al      13.10000000      21.20000000       5.00000000      -0.00708735      -0.32966272      -0.89934368
Al      13.10000000      23.22500000       7.02500000       0.00080704       0.06984692       1.57087301
Al      15.12500000      21.20000000       7.02500000      -0.10211689      -0.34324781       2.01912942
Al      15.12500000      23.22500000       5.00000000      -0.00319049       0.17271463      -0.48569206
Al      13.50192804      20.56013557       9.78599367       0.00965117      -0.04053651      -0.01656322
Al      12.77987772      23.14763406      12.59051207      -0.04371060       0.02776197      -0.00588685
Al      14.80383629      21.21677313      12.55512331      -0.05707643       0.00908951      -0.00160541
Al      14.66716103      23.19278803       9.81825459      -0.02424565      -0.02298850       0.00393277
Al      13.10000000      21.20000000      15.19262913      -0.08937756      -0.41347878       0.10151818
Al      13.10000000      23.22500000      17.81552317      -0.00844024      -0.22376932      -1.11124382
Al      15.12500000      21.20000000      17.81552317       0.00189255      -0.34790765      -1.11262757
Al      15.12500000      23.22500000      15.19262913      -0.07034746      -0.23590893      -0.11936254
Al      17.15000000       5.00000000       5.00000000       0.02085508      -0.17370859      -0.48198278
Al      17.15000000       7.02500000       7.02500000       0.12482668       0.30495504       1.72337693
Al      19.17500000       5.00000000       7.02500000      -0.08161411      -0.09813225       1.57907981
Al      19.17500000       7.02500000       5.00000000       0.03788219       0.32890150      -0.88185278
Al      17.65828615       4.86743731       9.90405468       0.02102308      -0.00023686       0.02238364
Al      17.54474119       6.96633896      12.47389630       0.01021077      -0.01811352      -0.00759626
Al      19.48065050       4.99422528      12.62879134       0.01543193      -0.01609506       0.01232652
Al      18.81907404       7.43502531       9.61289549      -0.00287560       0.01562769      -0.03071263
Al      17.15000000       5.00000000      15.19262913       0.06070153       0.27035187      -0.18087620
Al      17.15000000       7.02500000      17.81552317       0.01379588       0.34811973      -1.10525322
Al      19.17500000       5.00000000      17.81552317       0.04066522       0.22255812      -1.11418548
Al      19.17500000       7.02500000      15.19262913       0.15009810       0.38258503       0.02149500
Al      17.15000000       9.05000000       5.00000000       0.01163462      -0.03917654      -0.94564675
Al      17.15000000      11.07500000       7.02500000      -0.09926726       0.09926726       2.01537590
Al      19.17500000       9.05000000       7.02500000      -0.15244329       0.15244329       1.80822333
Al      19.17500000      11.07500000       5.00000000       0.03917654      -0.01163462      -0.94564675
Al      16.83121938       9.39475074       9.68880804      -0.01414653       0.00848034      -0.00051476
Al      16.61285322      11.61214678      12.37846553      -0.01684542       0.01684542      -0.00440539
Al      18.54665042       9.67834958      12.35435324      -0.01064532       0.01064532       0.01595886
Al      18.83024926      11.39378062       9.68880804      -0.00848034       0.01414653      -0.00051476
Al      17.15000000       9.05000000      15.19262913       0.03077540      -0.02381381      -0.02393207
Al      17.15000000      11.07500000      17.81552317       0.01355245      -0.01355245      -1.05117309
Al      19.17500000       9.05000000      17.81552317       0.04051204      -0.04051204      -1.04647721
Al      19.17500000      11.07500000      15.19262913       0.02381381      -0.03077540      -0.02393207
Al      17.15000000      13.10000000       5.00000000       0.00783086      -0.00090133      -0.94461380
Al      17.15000000      15.12500000       7.02500000       0.00539727      -0.07884032       1.80729552
Al      19.17500000      13.10000000       7.02500000       0.02502164      -0.00333985       2.02987703
Al      19.17500000      15.12500000       5.00000000       0.03518153       0.00249703      -0.96416349
Al      16.86712018      13.37483221       9.65788729      -0.00112763       0.00470142      -0.01780074
Al      17.43104133      14.62695259      12.50793537      -0.00549914      -0.00547541      -0.00557956
Al      19.45676920      12.75151165      12.47220833      -0.00758200      -0.01486482       0.00210813
Al      19.53723008      14.59618310       9.79216050       0.03080475      -0.01704506      -0.00483241
Al      17.15000000      13.10000000      15.19262913       0.00775104      -0.08555589       0.08799269
Al      17.15000000      15.12500000      17.81552317       0.01425962       0.00440660      -1.05927241
Al      19.17500000      13.10000000      17.81552317       0.04173810      -0.00318649      -1.05714261
Al      19.17500000      15.12500000      15.19262913      -0.07093254      -0.00908486       0.12420570
Al      17.15000000      17.15000000       5.00000000       0.00801928       0.01024543      -0.95790920
Al      17.15000000      19.17500000       7.02500000      -0.09451909       0.01364835       1.96047402
Al      19.17500000      17.15000000       7.02500000      -0.05009063      -0.00879814       2.16067400
Al      19.17500000      19.17500000       5.00000000       0.03493210       0.03743895      -0.97694593
Al      17.45013067      16.40982933       9.74310334      -0.01731015      -0.04517367      -0.02018129
Al      16.61259309      19.14711663      12.58358371      -0.05553942       0.01437571      -0.01042053
Al      18.62957696      17.21910001      12.47004769      -0.05956745       0.01765320      -0.01010134
Al      18.34826268      19.00339422       9.82978111      -0.05733348       0.00011611      -0.03917084
Al      17.15000000      17.15000000      15.19262913      -0.08684934      -0.03987112       0.06593566
Al      17.15000000      19.17500000      17.81552317       0.01333175       0.04301085      -1.06159589
Al      19.17500000      17.15000000      17.81552317       0.04284865       0.01612428      -1.05979557
Al      19.17500000      19.17500000      15.19262913      -0.17510319      -0.01857254       0.16156431
Al      17.15000000      21.20000000       5.00000000       0.01074374      -0.32636653      -0.90428014
Al      17.15000000      23.22500000       7.02500000      -0.10710114       0.11518144       1.81675212
Al      19.17500000      21.20000000       7.02500000      -0.00661584      -0.53040955       2.08680198
Al      19.17500000      23.22500000       5.00000000       0.03581620       0.16183437      -0.48553060
Al      16.67512974      21.19095251       9.74540429      -0.03396941       0.02158859      -0.00368455
Al      17.09494697      22.97901195      12.44690767       0.00323166      -0.05704856       0.00659736
Al      18.83638412      20.74875752      12.43013828       0.00606490      -0.04914018      -0.00085549
Al      19.12717560      22.78170946       9.69326694      -0.00972866      -0.06068522      -0.00699082
Al      17.15000000      21.20000000      15.19262913      -0.06681793      -0.38576187      -0.03021494
Al      17.15000000      23.22500000      17.81552317       0.01416551      -0.22686605      -1.09384098
Al      19.17500000      21.20000000      17.81552317       0.04080565      -0.34816798      -1.10385797
Al      19.17500000      23.22500000      15.19262913      -0.12221691      -0.32757550       0.03067649
Al      21.20000000       5.00000000       5.00000000      -0.45148601      -0.06996905      -0.38929523
Al      21.20000000       7.02500000       7.02500000      -0.49165228       0.49165228       1.90477829
Al      23.22500000       5.00000000       7.02500000      -0.62739401       0.62739401       1.23324852
Al      23.22500000       7.02500000       5.00000000       0.06996905       0.45148601      -0.38929523
Al      20.78051020       5.41448162       9.70622685      -0.00341974      -0.00493309      -0.01276694
Al      20.49277008       7.73222992      12.25659758      -0.00336984       0.00336984      -0.01900780
Al      22.43080339       5.79419661      12.42428170       0.00720584      -0.00720584       0.02576687
Al      22.81051838       7.44448980       9.70622685       0.00493309       0.00341974      -0.01276694
Al      21.20000000       5.00000000      15.19262913      -0.43655302       0.37224600       0.40459239
Al      21.20000000       7.02500000      17.81552317      -0.34060331       0.34060331      -1.14042852
Al      23.22500000       5.00000000      17.81552317      -0.85713994       0.85713994      -0.98752882
Al      23.22500000       7.02500000      15.19262913      -0.37224600       0.43655302       0.40459239
Al      21.20000000       9.05000000       5.00000000      -0.32890150      -0.03788219      -0.88185278
Al      21.20000000      11.07500000       7.02500000      -0.30495504      -0.12482668       1.72337693
Al      23.22500000       9.05000000       7.02500000       0.09813225       0.08161411       1.57907981
Al      23.22500000      11.07500000       5.00000000       0.17370859      -0.02085508      -0.48198278
Al      20.78997469       9.40592596       9.61289549      -0.01562769       0.00287560      -0.03071263
Al      21.25866104      10.68025881      12.47389630       0.01811352      -0.01021077      -0.00759626
Al      23.23077472       8.74434950      12.62879134       0.01609506      -0.01543193       0.01232652
Al      23.35756269      10.56671385       9.90405468       0.00023686      -0.02102308       0.02238364
Al      21.20000000       9.05000000      15.19262913      -0.38258503      -0.15009810       0.02149500
Al      21.20000000      11.07500000      17.81552317      -0.34811973      -0.01379588      -1.10525322
Al      23.22500000       9.05000000      17.81552317      -0.22255812      -0.04066522      -1.11418548
Al      23.22500000      11.07500000      15.19262913      -0.27035187      -0.06070153      -0.18087620
Al      21.20000000      13.10000000       5.00000000      -0.32860779      -0.00529657      -0.88538950
Al      21.20000000      15.12500000       7.02500000      -0.45964460      -0.00782532       1.97946813
Al      23.22500000      13.10000000       7.02500000       0.17967412      -0.06136901       1.76828534
Al      23.22500000      15.12500000       5.00000000       0.15920595       0.00759618      -0.50467805
Al      21.41415253      12.58198033       9.62429225       0.02547973      -0.02956574      -0.03394941
Al      20.77646583      15.37157205      12.56975561      -0.05174754       0.01336910      -0.00856413
Al      22.70798927      13.20368801      12.42247528      -0.04448540       0.02930876       0.00522678
Al      22.66231282      15.26747778       9.76496550      -0.01174844       0.00186784      -0.01789452
Al      21.20000000      13.10000000      15.19262913      -0.43249783      -0.01934958       0.09368190
Al      21.20000000      15.12500000      17.81552317      -0.34876534       0.00581645      -1.10966673
Al      23.22500000      13.10000000      17.81552317      -0.23086806      -0.00310688      -1.08481848
Al      23.22500000      15.12500000      15.19262913      -0.34739397       0.04747052      -0.11774868
Al      21.20000000      17.15000000       5.00000000      -0.32534371       0.01435128      -0.90781804
Al      21.20000000      19.17500000       7.02500000      -0.39193171      -0.00273989       2.01581971
Al      23.22500000      17.15000000       7.02500000       0.05492249      -0.06237670       1.61915239
Al      23.22500000      19.17500000       5.00000000       0.17504785       0.03337551      -0.45980332
Al      20.64033553      17.30282010       9.81345443      -0.04818831       0.00665713      -0.00805733
Al      20.86388819      18.85855261      12.63528553      -0.00029983      -0.04828662       0.01838120
Al      23.06188898      17.13542624      12.43924420       0.01076836      -0.04246798       0.00239951
Al      23.06477959      18.95975846       9.63146429      -0.01075948      -0.03766650      -0.01024273
Al      21.20000000      17.15000000      15.19262913      -0.37243688      -0.03461710       0.22190184