299
Lattice="28.224999999999998 0.0 0.0 0.0 28.224999999999998 0.0 0.0 0.0 20.125" Properties=species:S:1:pos:R:3 energy=-16469.482023246994 pbc="T T T"
Al       5.00000000       5.00000000       5.00000000
Al       5.00000000       7.02500000       7.02500000
Al       7.02500000       5.00000000       7.02500000
Al       7.02500000       7.02500000       5.00000000
Al       4.97635825       4.97716806       9.09688916
Al       4.87569383       7.05372698      11.12844032
Al       7.05107184       4.87284430      11.12826069
Al       7.02682470       7.02815850       9.11616129
Al       5.00000000       5.00000000      13.17087500
Al       5.00000000       7.02500000      15.21612500
Al       7.02500000       5.00000000      15.21612500
Al       7.02500000       7.02500000      13.17087500
Al       5.00000000       9.05000000       5.00000000
Al       5.00000000      11.07500000       7.02500000
Al       7.02500000       9.05000000       7.02500000
Al       7.02500000      11.07500000       5.00000000
Al       4.82263209       9.05009869       9.05622271
Al       4.80883761      11.06607755      11.13866399
Al       7.00059057       9.06477491      11.10604590
Al       6.98111415      11.08006335       9.09915737
Al       5.00000000       9.05000000      13.17087500
Al       5.00000000      11.07500000      15.21612500
Al       7.02500000       9.05000000      15.21612500
Al       7.02500000      11.07500000      13.17087500
Al       5.00000000      13.10000000       5.00000000
Al       5.00000000      15.12500000       7.02500000
Al       7.02500000      13.10000000       7.02500000
Al       7.02500000      15.12500000       5.00000000
Al       4.81086039      13.09648149       9.06581568
Al       4.81372456      15.12646301      11.13880390
Al       6.96454938      13.09428549      11.10274092
Al       6.96754092      15.12634437       9.09782731
Al       5.00000000      13.10000000      13.17087500
Al       5.00000000      15.12500000      15.21612500
Al       7.02500000      13.10000000      15.21612500
Al       7.02500000      15.12500000      13.17087500
Al       5.00000000      17.15000000       5.00000000
Al       5.00000000      19.17500000       7.02500000
Al       7.02500000      17.15000000       7.02500000
Al       7.02500000      19.17500000       5.00000000
Al       4.80925159      17.15754432       9.06594374
Al       4.81715924      19.17747683      11.14949380
Al       6.96701135      17.15411174      11.10500896
Al       7.00013022      19.16320523       9.10044586
Al       5.00000000      17.15000000      13.17087500
Al       5.00000000      19.17500000      15.21612500
Al       7.02500000      17.15000000      15.21612500
Al       7.02500000      19.17500000      13.17087500
Al       5.00000000      21.20000000       5.00000000
Al       5.00000000      23.22500000       7.02500000
Al       7.02500000      21.20000000       7.02500000
Al       7.02500000      23.22500000       5.00000000
Al       4.87659907      21.17175128       9.07817544
Al       4.97809665      23.24690335      11.10948791
Al       7.03488804      21.19011196      11.08992048
Al       7.05324872      23.34840093       9.07817544
Al       5.00000000      21.20000000      13.17087500
Al       5.00000000      23.22500000      15.21612500
Al       7.02500000      21.20000000      15.21612500
Al       7.02500000      23.22500000      13.17087500
Al       9.05000000       5.00000000       5.00000000
Al       9.05000000       7.02500000       7.02500000
Al      11.07500000       5.00000000       7.02500000
Al      11.07500000       7.02500000       5.00000000
Al       9.04823489       4.81950399       9.05542181
Al       9.05315017       6.98834322      11.10513352
Al      11.06815692       4.81124342      11.13867195
Al      11.07239892       6.96987501       9.09684172
Al       9.05000000       5.00000000      13.17087500
Al       9.05000000       7.02500000      15.21612500
Al      11.07500000       5.00000000      15.21612500
Al      11.07500000       7.02500000      13.17087500
Al       9.05000000       9.05000000       5.00000000
Al       9.05000000      11.07500000       7.02500000
Al      11.07500000       9.05000000       7.02500000
Al      11.07500000      11.07500000       5.00000000
Al       9.05457885       9.05728106       9.08742540
Al       9.06036349      11.10281172      11.12415047
Al      11.07439917       9.03035683      11.12000413
Al      11.09025579      11.09396388       9.08928829
Al       9.05000000       9.05000000      13.17087500
Al       9.05000000      11.07500000      15.21612500
Al      11.07500000       9.05000000      15.21612500
Al      11.07500000      11.07500000      13.17087500
Al       9.05000000      13.10000000       5.00000000
Al       9.05000000      15.12500000       7.02500000
Al      11.07500000      13.10000000       7.02500000
Al      11.07500000      15.12500000       5.00000000
Al       9.04880395      13.11334176       9.09277161
Al       9.00852234      15.12484518      11.12931960
Al      11.14688844      13.17311904      11.14724649
Al      11.11779157      15.12376630       9.11574011
Al       9.05000000      13.10000000      13.17087500
Al       9.05000000      15.12500000      15.21612500
Al      11.07500000      13.10000000      15.21612500
Al      11.07500000      15.12500000      13.17087500
Al       9.05000000      17.15000000       5.00000000
Al       9.05000000      19.17500000       7.02500000
Al      11.07500000      17.15000000       7.02500000
Al      11.07500000      19.17500000       5.00000000
Al       9.05356227      17.13284591       9.09240965
Al       9.07312079      19.15187921      11.12148819
Al      11.15038054      17.07461946      11.14723214
Al      11.09215409      19.17143773       9.09240965
Al       9.05000000      17.15000000      13.17087500
Al       9.05000000      19.17500000      15.21612500
Al      11.07500000      17.15000000      15.21612500
Al      11.07500000      19.17500000      13.17087500
Al       9.05000000      21.20000000       5.00000000
Al       9.05000000      23.22500000       7.02500000
Al      11.07500000      21.20000000       7.02500000
Al      11.07500000      23.22500000       5.00000000
Al       9.06179477      21.22486978       9.10044586
Al       9.04752317      23.40784076      11.14949380
Al      11.07088826      21.25798865      11.10500896
Al      11.06745568      23.41574841       9.06594374
Al       9.05000000      21.20000000      13.17087500
Al       9.05000000      23.22500000      15.21612500
Al      11.07500000      21.20000000      15.21612500
Al      11.07500000      23.22500000      13.17087500
Al      13.10000000       5.00000000       5.00000000
Al      13.10000000       7.02500000       7.02500000
Al      15.12500000       5.00000000       7.02500000
Al      15.12500000       7.02500000       5.00000000
Al      13.09812733       4.81336194       9.06633759
Al      13.09849993       6.97005319      11.10369550
Al      15.12758145       4.81283767      11.13820992
Al      15.12867070       6.96730910       9.09873991
Al      13.10000000       5.00000000      13.17087500
Al      13.10000000       7.02500000      15.21612500
Al      15.12500000       5.00000000      15.21612500
Al      15.12500000       7.02500000      13.17087500
Al      13.10000000       9.05000000       5.00000000
Al      13.10000000      11.07500000       7.02500000
Al      15.12500000       9.05000000       7.02500000
Al      15.12500000      11.07500000       5.00000000
Al      13.09994754       9.02847630       9.07999267
Al      13.10120603      11.05116872      11.13214525
Al      15.12951806       9.02526519      11.11918863
Al      15.11099543      11.09119438       9.08904286
Al      13.10000000       9.05000000      13.17087500
Al      13.10000000      11.07500000      15.21612500
Al      15.12500000       9.05000000      15.21612500
Al      15.12500000      11.07500000      13.17087500
Al      13.10000000      13.10000000       5.00000000
Al      13.10000000      15.12500000       7.02500000
Al      15.12500000      13.10000000       7.02500000
Al      15.12500000      15.12500000       5.00000000
Al      13.10095963      13.14411032       9.11501837
Al      15.05237992      13.17262008      11.14698002
Al      15.08088968      15.12404037       9.11501837
Al      13.10000000      13.10000000      13.17087500
Al      13.10000000      15.12500000      15.21612500
Al      15.12500000      13.10000000      15.21612500
Al      15.12500000      15.12500000      13.17087500
Al      13.10000000      17.15000000       5.00000000
Al      13.10000000      19.17500000       7.02500000
Al      15.12500000      17.15000000       7.02500000
Al      15.12500000      19.17500000       5.00000000
Al      13.10123370      17.10720843       9.11574011
Al      13.10015482      19.21647766      11.12931960
Al      15.05188096      17.07811156      11.14724649
Al      15.11165824      19.17619605       9.09277161
Al      13.10000000      17.15000000      13.17087500
Al      13.10000000      19.17500000      15.21612500
Al      15.12500000      17.15000000      15.21612500
Al      15.12500000      19.17500000      13.17087500
Al      13.10000000      21.20000000       5.00000000
Al      13.10000000      23.22500000       7.02500000
Al      15.12500000      21.20000000       7.02500000
Al      15.12500000      23.22500000       5.00000000
Al      13.09865563      21.25745908       9.09782731
Al      13.09853699      23.41127544      11.13880390
Al      15.13071451      21.26045062      11.10274092
Al      15.12851851      23.41413961       9.06581568
Al      13.10000000      21.20000000      13.17087500
Al      13.10000000      23.22500000      15.21612500
Al      15.12500000      21.20000000      15.21612500
Al      15.12500000      23.22500000      13.17087500
Al      17.15000000       5.00000000       5.00000000
Al      17.15000000       7.02500000       7.02500000
Al      19.17500000       5.00000000       7.02500000
Al      19.17500000       7.02500000       5.00000000
Al      17.15803207       4.81071693       9.06551572
Al      17.15389617       6.96952081      11.10537601
Al      19.17731618       4.81917568      11.14896384
Al      19.16858841       6.99343980       9.09860240
Al      17.15000000       5.00000000      13.17087500
Al      17.15000000       7.02500000      15.21612500
Al      19.17500000       5.00000000      15.21612500
Al      19.17500000       7.02500000      13.17087500
Al      17.15000000       9.05000000       5.00000000
Al      17.15000000      11.07500000       7.02500000
Al      19.17500000       9.05000000       7.02500000
Al      19.17500000      11.07500000       5.00000000
Al      17.14064186       9.04473161       9.08423568
Al      17.12442173      11.10057827      11.12671516
Al      19.16753752       9.05746248      11.11849698
Al      19.18026839      11.08435814       9.08423568
Al      17.15000000       9.05000000      13.17087500
Al      17.15000000      11.07500000      15.21612500
Al      19.17500000       9.05000000      15.21612500
Al      19.17500000      11.07500000      13.17087500
Al      17.15000000      13.10000000       5.00000000
Al      17.15000000      15.12500000       7.02500000
Al      19.17500000      13.10000000       7.02500000
Al      19.17500000      15.12500000       5.00000000
Al      17.13380562      13.11400457       9.08904286
Al      17.17383128      15.12379397      11.13214525
Al      19.19973481      13.09548194      11.11918863
Al      19.19652370      15.12505246       9.07999267
Al      17.15000000      13.10000000      13.17087500
Al      17.15000000      15.12500000      15.21612500
Al      19.17500000      13.10000000      15.21612500
Al      19.17500000      15.12500000      13.17087500
Al      17.15000000      17.15000000       5.00000000
Al      17.15000000      19.17500000       7.02500000
Al      19.17500000      17.15000000       7.02500000
Al      19.17500000      19.17500000       5.00000000
Al      17.13103612      17.13474421       9.08928829
Al      17.12218828      19.16463651      11.12415047
Al      19.19464317      17.15060083      11.12000413
Al      19.16771894      19.17042115       9.08742540
Al      17.15000000      17.15000000      13.17087500
Al      17.15000000      19.17500000      15.21612500
Al      19.17500000      17.15000000      15.21612500
Al      19.17500000      19.17500000      13.17087500
Al      17.15000000      21.20000000       5.00000000
Al      17.15000000      23.22500000       7.02500000
Al      19.17500000      21.20000000       7.02500000
Al      19.17500000      23.22500000       5.00000000
Al      17.14493665      21.24388585       9.09915737
Al      17.15892245      23.41616239      11.13866399
Al      19.16022509      21.22440943      11.10604590
Al      19.17490131      23.40236791       9.05622271
Al      17.15000000      21.20000000      13.17087500
Al      17.15000000      23.22500000      15.21612500
Al      19.17500000      21.20000000      15.21612500
Al      19.17500000      23.22500000      13.17087500
Al      21.20000000       5.00000000       5.00000000
Al      21.20000000       7.02500000       7.02500000
Al      23.22500000       5.00000000       7.02500000
Al      23.22500000       7.02500000       5.00000000
Al      21.17322991       4.87436912       9.07642064
Al      21.19736747       7.02763253      11.08920933
Al      23.24803505       4.97696495      11.10841957
Al      23.35063088       7.05177009       9.07642064
Al      21.20000000       5.00000000      13.17087500
Al      21.20000000       7.02500000      15.21612500
Al      23.22500000       5.00000000      15.21612500
Al      23.22500000       7.02500000      13.17087500
Al      21.20000000       9.05000000       5.00000000
Al      21.20000000      11.07500000       7.02500000
Al      23.22500000       9.05000000       7.02500000
Al      23.22500000      11.07500000       5.00000000
Al      21.23156020       9.05641159       9.09860240
Al      21.25547919      11.07110383      11.10537601
Al      23.40582432       9.04768382      11.14896384
Al      23.41428307      11.06696793       9.06551572
Al      21.20000000       9.05000000      13.17087500
Al      21.20000000      11.07500000      15.21612500
Al      23.22500000       9.05000000      15.21612500
Al      23.22500000      11.07500000      13.17087500
Al      21.20000000      13.10000000       5.00000000
Al      21.20000000      15.12500000       7.02500000
Al      23.22500000      13.10000000       7.02500000
Al      23.22500000      15.12500000       5.00000000
Al      21.25769090      13.09632930       9.09873991
Al      21.25494681      15.12650007      11.10369550
Al      23.41216233      13.09741855      11.13820992
Al      23.41163806      15.12687267       9.06633759
Al      21.20000000      13.10000000      13.17087500
Al      21.20000000      15.12500000      15.21612500
Al      23.22500000      13.10000000      15.21612500
Al      23.22500000      15.12500000      13.17087500
Al      21.20000000      17.15000000       5.00000000
Al      21.20000000      19.17500000       7.02500000
Al      23.22500000      17.15000000       7.02500000
Al      23.22500000      19.17500000       5.00000000
Al      21.25512499      17.15260108       9.09684172
Al      21.23665678      19.17184983      11.10513352
Al      23.41375658      17.15684308      11.13867195
Al      23.40549601      19.17676511       9.05542181
Al      21.20000000      17.15000000      13.17087500
Al      21.20000000      19.17500000      15.21612500
Al      23.22500000      17.15000000      15.21612500
Al      23.22500000      19.17500000      13.17087500
Al      21.20000000      21.20000000       5.00000000
Al      21.20000000      23.22500000       7.02500000
Al      23.22500000      21.20000000       7.02500000
Al      23.22500000      23.22500000       5.00000000
Al      21.19684150      21.19817530       9.11616129
Al      21.17127302      23.34930617      11.12844032
Al      23.35215570      21.17392816      11.12826069
Al      23.24783194      23.24864175       9.09688916
Al      21.20000000      21.20000000      13.17087500
Al      21.20000000      23.22500000      15.21612500
Al      23.22500000      21.20000000      15.21612500
Al      23.22500000      23.22500000      13.17087500
