299
Lattice="28.224999999999998 0.0 0.0 0.0 28.224999999999998 0.0 0.0 0.0 20.125" Properties=species:S:1:pos:R:3 energy=-16467.09372487862 pbc="T T T"
Al       5.00000000       5.00000000       5.00000000
Al       5.00000000       7.02500000       7.02500000
Al       7.02500000       5.00000000       7.02500000
Al       7.02500000       7.02500000       5.00000000
Al       5.07486394       5.07672811       9.22231916
Al       4.96492333       7.08615792      11.37981360
Al       7.07898272       4.94885718      11.38097145
Al       7.08171479       7.08048459       9.20619915
Al       5.00000000       5.00000000      13.53602407
Al       5.00000000       7.02500000      15.68560237
Al       7.02500000       5.00000000      15.68560237
Al       7.02500000       7.02500000      13.53602407
Al       5.00000000       9.05000000       5.00000000
Al       5.00000000      11.07500000       7.02500000
Al       7.02500000       9.05000000       7.02500000
Al       7.02500000      11.07500000       5.00000000
Al       4.89976832       9.04488210       9.17497411
Al       4.86991262      11.05953184      11.37158054
Al       7.04682313       9.08747158      11.35977365
Al       7.00930174      11.07761829       9.20043172
Al       5.00000000       9.05000000      13.53602407
Al       5.00000000      11.07500000      15.68560237
Al       7.02500000       9.05000000      15.68560237
Al       7.02500000      11.07500000      13.53602407
Al       5.00000000      13.10000000       5.00000000
Al       5.00000000      15.12500000       7.02500000
Al       7.02500000      13.10000000       7.02500000
Al       7.02500000      15.12500000       5.00000000
Al       4.87061678      13.09466874       9.18137469
Al       4.87193825      15.12897180      11.37232463
Al       6.98538919      13.09066238      11.35130655
Al       6.98974989      15.12877426       9.19822977
Al       5.00000000      13.10000000      13.53602407
Al       5.00000000      15.12500000      15.68560237
Al       7.02500000      13.10000000      15.68560237
Al       7.02500000      15.12500000      13.53602407
Al       5.00000000      17.15000000       5.00000000
Al       5.00000000      19.17500000       7.02500000
Al       7.02500000      17.15000000       7.02500000
Al       7.02500000      19.17500000       5.00000000
Al       4.87296963      17.16490617       9.18316721
Al       4.88602710      19.18626443      11.38185789
Al       6.99215123      17.16135454      11.35350275
Al       7.03855813      19.14875864       9.19538232
Al       5.00000000      17.15000000      13.53602407
Al       5.00000000      19.17500000      15.68560237
Al       7.02500000      17.15000000      15.68560237
Al       7.02500000      19.17500000      13.53602407
Al       5.00000000      21.20000000       5.00000000
Al       5.00000000      23.22500000       7.02500000
Al       7.02500000      21.20000000       7.02500000
Al       7.02500000      23.22500000       5.00000000
Al       4.96133146      21.14098231       9.17640341
Al       5.08308690      23.14191310      11.33611804
Al       7.09523689      21.12976311      11.34943434
Al       7.08401769      23.26366854       9.17640341
Al       5.00000000      21.20000000      13.53602407
Al       5.00000000      23.22500000      15.68560237
Al       7.02500000      21.20000000      15.68560237
Al       7.02500000      23.22500000      13.53602407
Al       9.05000000       5.00000000       5.00000000
Al       9.05000000       7.02500000       7.02500000
Al      11.07500000       5.00000000       7.02500000
Al      11.07500000       7.02500000       5.00000000
Al       9.04037641       4.88943690       9.17406389
Al       9.06522737       7.02571615      11.35921707
Al      11.06154047       4.87434591      11.37158391
Al      11.06704133       6.99880632       9.19805198
Al       9.05000000       5.00000000      13.53602407
Al       9.05000000       7.02500000      15.68560237
Al      11.07500000       5.00000000      15.68560237
Al      11.07500000       7.02500000      13.53602407
Al       9.05000000       9.05000000       5.00000000
Al       9.05000000      11.07500000       7.02500000
Al      11.07500000       9.05000000       7.02500000
Al      11.07500000      11.07500000       5.00000000
Al       9.07560920       9.07829172       9.18775920
Al       9.09242619      11.12561407      11.36662404
Al      11.07523210       9.03955874      11.36462806
Al      11.09257714      11.09587534       9.20048317
Al       9.05000000       9.05000000      13.53602407
Al       9.05000000      11.07500000      15.68560237
Al      11.07500000       9.05000000      15.68560237
Al      11.07500000      11.07500000      13.53602407
Al       9.05000000      13.10000000       5.00000000
Al       9.05000000      15.12500000       7.02500000
Al      11.07500000      13.10000000       7.02500000
Al      11.07500000      15.12500000       5.00000000
Al       9.05060571      13.11222636       9.19754156
Al       9.00964057      15.12514600      11.36614025
Al      11.19262335      13.22280864      11.36969318
Al      11.09679447      15.12236449       9.19080485
Al       9.05000000      13.10000000      13.53602407
Al       9.05000000      15.12500000      15.68560237
Al      11.07500000      13.10000000      15.68560237
Al      11.07500000      15.12500000      13.53602407
Al       9.05000000      17.15000000       5.00000000
Al       9.05000000      19.17500000       7.02500000
Al      11.07500000      17.15000000       7.02500000
Al      11.07500000      19.17500000       5.00000000
Al       9.06369058      17.13164782       9.19746512
Al       9.11419230      19.11080770      11.36862653
Al      11.20263579      17.02236421      11.36878556
Al      11.09335218      19.16130942       9.19746512
Al       9.05000000      17.15000000      13.53602407
Al       9.05000000      19.17500000      15.68560237
Al      11.07500000      17.15000000      15.68560237
Al      11.07500000      19.17500000      13.53602407
Al       9.05000000      21.20000000       5.00000000
Al       9.05000000      23.22500000       7.02500000
Al      11.07500000      21.20000000       7.02500000
Al      11.07500000      23.22500000       5.00000000
Al       9.07624136      21.18644187       9.19538232
Al       9.03873557      23.33897290      11.38185789
Al      11.06364546      21.23284877      11.35350275
Al      11.06009383      23.35203037       9.18316721
Al       9.05000000      21.20000000      13.53602407
Al       9.05000000      23.22500000      15.68560237
Al      11.07500000      21.20000000      15.68560237
Al      11.07500000      23.22500000      13.53602407
Al      13.10000000       5.00000000       5.00000000
Al      13.10000000       7.02500000       7.02500000
Al      15.12500000       5.00000000       7.02500000
Al      15.12500000       7.02500000       5.00000000
Al      13.09603606       4.87401644       9.18223446
Al      13.09614193       6.99327832      11.35083768
Al      15.12917517       4.87241228      11.37288244
Al      15.13102488       6.99191609       9.19964046
Al      13.10000000       5.00000000      13.53602407
Al      13.10000000       7.02500000      15.68560237
Al      15.12500000       5.00000000      15.68560237
Al      15.12500000       7.02500000      13.53602407
Al      13.10000000       9.05000000       5.00000000
Al      13.10000000      11.07500000       7.02500000
Al      15.12500000       9.05000000       7.02500000
Al      15.12500000      11.07500000       5.00000000
Al      13.09995786       9.03068192       9.18496177
Al      13.10334376      11.04508957      11.36462336
Al      15.13112244       9.02625406      11.36367360
Al      15.10990238      11.08754554       9.19895028
Al      13.10000000       9.05000000      13.53602407
Al      13.10000000      11.07500000      15.68560237
Al      15.12500000       9.05000000      15.68560237
Al      15.12500000      11.07500000      13.53602407
Al      13.10000000      13.10000000       5.00000000
Al      13.10000000      15.12500000       7.02500000
Al      15.12500000      13.10000000       7.02500000
Al      15.12500000      15.12500000       5.00000000
Al      13.10098634      13.12705826       9.19227425
Al      15.00190455      13.22309545      11.36997483
Al      15.09794174      15.12401366       9.19227425
Al      13.10000000      13.10000000      13.53602407
Al      13.10000000      15.12500000      15.68560237
Al      15.12500000      13.10000000      15.68560237
Al      15.12500000      15.12500000      13.53602407
Al      13.10000000      17.15000000       5.00000000
Al      13.10000000      19.17500000       7.02500000
Al      15.12500000      17.15000000       7.02500000
Al      15.12500000      19.17500000       5.00000000
Al      13.10263551      17.12820553       9.19080485
Al      13.09985400      19.21535943      11.36614025
Al      15.00219136      17.03237665      11.36969318
Al      15.11277364      19.17439429       9.19754156
Al      13.10000000      17.15000000      13.53602407
Al      13.10000000      19.17500000      15.68560237
Al      15.12500000      17.15000000      15.68560237
Al      15.12500000      19.17500000      13.53602407
Al      13.10000000      21.20000000       5.00000000
Al      13.10000000      23.22500000       7.02500000
Al      15.12500000      21.20000000       7.02500000
Al      15.12500000      23.22500000       5.00000000
Al      13.09622574      21.23525011       9.19822977
Al      13.09602820      23.35306175      11.37232463
Al      15.13433762      21.23961081      11.35130655
Al      15.13033126      23.35438322       9.18137469
Al      13.10000000      21.20000000      13.53602407
Al      13.10000000      23.22500000      15.68560237
Al      15.12500000      21.20000000      15.68560237
Al      15.12500000      23.22500000      13.53602407
Al      17.15000000       5.00000000       5.00000000
Al      17.15000000       7.02500000       7.02500000
Al      19.17500000       5.00000000       7.02500000
Al      19.17500000       7.02500000       5.00000000
Al      17.16450320       4.87373927       9.18366594
Al      17.15884858       6.99689560      11.35317296
Al      19.18513771       4.88852241      11.38159506
Al      19.15256149       7.03395967       9.19388836
Al      17.15000000       5.00000000      13.53602407
Al      17.15000000       7.02500000      15.68560237
Al      19.17500000       5.00000000      15.68560237
Al      19.17500000       7.02500000      13.53602407
Al      17.15000000       9.05000000       5.00000000
Al      17.15000000      11.07500000       7.02500000
Al      19.17500000       9.05000000       7.02500000
Al      19.17500000      11.07500000       5.00000000
Al      17.13690919       9.05729057       9.18949299
Al      17.10003564      11.12496436      11.36387921
Al      19.13865928       9.08634072      11.36683407
Al      19.16770943      11.08809081       9.18949299
Al      17.15000000       9.05000000      13.53602407
Al      17.15000000      11.07500000      15.68560237
Al      19.17500000       9.05000000      15.68560237
Al      19.17500000      11.07500000      13.53602407
Al      17.15000000      13.10000000       5.00000000
Al      17.15000000      15.12500000       7.02500000
Al      19.17500000      13.10000000       7.02500000
Al      19.17500000      15.12500000       5.00000000
Al      17.13745446      13.11509762       9.19895028
Al      17.17991043      15.12165624      11.36462336
Al      19.19874594      13.09387756      11.36367360
Al      19.19431808      15.12504214       9.18496177
Al      17.15000000      13.10000000      13.53602407
Al      17.15000000      15.12500000      15.68560237
Al      19.17500000      13.10000000      15.68560237
Al      19.17500000      15.12500000      13.53602407
Al      17.15000000      17.15000000       5.00000000
Al      17.15000000      19.17500000       7.02500000
Al      19.17500000      17.15000000       7.02500000
Al      19.17500000      19.17500000       5.00000000
Al      17.12912466      17.13242286       9.20048317
Al      17.09938593      19.13257381      11.36662404
Al      19.18544126      17.14976790      11.36462806
Al      19.14670828      19.14939080       9.18775920
Al      17.15000000      17.15000000      13.53602407
Al      17.15000000      19.17500000      15.68560237
Al      19.17500000      17.15000000      15.68560237
Al      19.17500000      19.17500000      13.53602407
Al      17.15000000      21.20000000       5.00000000
Al      17.15000000      23.22500000       7.02500000
Al      19.17500000      21.20000000       7.02500000
Al      19.17500000      23.22500000       5.00000000
Al      17.14738171      21.21569826       9.20043172
Al      17.16546816      23.35508738      11.37158054
Al      19.13752842      21.17817687      11.35977365
Al      19.18011790      23.32523168       9.17497411
Al      17.15000000      21.20000000      13.53602407
Al      17.15000000      23.22500000      15.68560237
Al      19.17500000      21.20000000      15.68560237
Al      19.17500000      23.22500000      13.53602407
Al      21.20000000       5.00000000       5.00000000
Al      21.20000000       7.02500000       7.02500000
Al      23.22500000       5.00000000       7.02500000
Al      23.22500000       7.02500000       5.00000000
Al      21.14392939       4.95697263       9.17646582
Al      21.14115547       7.08384453      11.34851048
Al      23.14882120       5.07617880      11.33777648
Al      23.26802737       7.08107061       9.17646582
Al      21.20000000       5.00000000      13.53602407
Al      21.20000000       7.02500000      15.68560237
Al      23.22500000       5.00000000      15.68560237
Al      23.22500000       7.02500000      13.53602407
Al      21.20000000       9.05000000       5.00000000
Al      21.20000000      11.07500000       7.02500000
Al      23.22500000       9.05000000       7.02500000
Al      23.22500000      11.07500000       5.00000000
Al      21.19104033       9.07243851       9.19388836
Al      21.22810440      11.06615142      11.35317296
Al      23.33647759       9.03986229      11.38159506
Al      23.35126073      11.06049680       9.18366594
Al      21.20000000       9.05000000      13.53602407
Al      21.20000000      11.07500000      15.68560237
Al      23.22500000       9.05000000      15.68560237
Al      23.22500000      11.07500000      13.53602407
Al      21.20000000      13.10000000       5.00000000
Al      21.20000000      15.12500000       7.02500000
Al      23.22500000      13.10000000       7.02500000
Al      23.22500000      15.12500000       5.00000000
Al      21.23308391      13.09397512       9.19964046
Al      21.23172168      15.12885807      11.35083768
Al      23.35258772      13.09582483      11.37288244
Al      23.35098356      15.12896394       9.18223446
Al      21.20000000      13.10000000      13.53602407
Al      21.20000000      15.12500000      15.68560237
Al      23.22500000      13.10000000      15.68560237
Al      23.22500000      15.12500000      13.53602407
Al      21.20000000      17.15000000       5.00000000
Al      21.20000000      19.17500000       7.02500000
Al      23.22500000      17.15000000       7.02500000
Al      23.22500000      19.17500000       5.00000000
Al      21.22619368      17.15795867       9.19805198
Al      21.19928385      19.15977263      11.35921707
Al      23.35065409      17.16345953      11.37158391
Al      23.33556310      19.18462359       9.17406389
Al      21.20000000      17.15000000      13.53602407
Al      21.20000000      19.17500000      15.68560237
Al      23.22500000      17.15000000      15.68560237
Al      23.22500000      19.17500000      13.53602407
Al      21.20000000      21.20000000       5.00000000
Al      21.20000000      23.22500000       7.02500000
Al      23.22500000      21.20000000       7.02500000
Al      23.22500000      23.22500000       5.00000000
Al      21.14451541      21.14328521       9.20619915
Al      21.13884208      23.26007667      11.37981360
Al      23.27614282      21.14601728      11.38097145
Al      23.14827189      23.15013606       9.22231916
Al      21.20000000      21.20000000      13.53602407
Al      21.20000000      23.22500000      15.68560237
Al      23.22500000      21.20000000      15.68560237
Al      23.22500000      23.22500000      13.53602407
