299
Lattice="28.224999999999998 0.0 0.0 0.0 28.224999999999998 0.0 0.0 0.0 20.125" Properties=species:S:1:pos:R:3:forces:R:3 energy=-16403.032603079482 pbc="T T T"
Al       5.00000000       5.00000000       5.00000000       0.39201818       0.39210018      -0.03863728
Al       5.00000000       7.02500000       7.02500000      -0.04159964       0.62290075       1.30665694
Al       7.02500000       5.00000000       7.02500000       0.68636306      -0.05820133       1.33343806
Al       7.02500000       7.02500000       5.00000000       0.32242966       0.32192965      -0.81855559
Al       5.84487839       5.81285369       9.68033567      -0.03198507      -0.02718434       0.02481148
Al       5.49587985       7.43186616      12.37218383      -0.03072259      -0.00159333      -0.00426170
Al       7.50955245       5.31734803      12.30508481      -0.01564017      -0.02629312      -0.00573999
Al       7.86358883       7.59080888       9.81267171       0.03584238      -0.01510155       0.01903100
Al       5.00000000       5.00000000      15.01174432       1.09937625       1.06736641      -0.14259835
Al       5.00000000       7.02500000      17.58295698       0.32034392       0.48493618      -1.14064069
Al       7.02500000       5.00000000      17.58295698       0.48613411       0.31973106      -1.14101155
Al       7.02500000       7.02500000      15.01174432       0.58714186       0.44860270       0.11969666
Al       5.00000000       9.05000000       5.00000000      -0.16263637      -0.03639547      -0.45191040
Al       5.00000000      11.07500000       7.02500000      -0.13644673       0.12229879       1.78617316
Al       7.02500000       9.05000000       7.02500000       0.56963451       0.02367914       1.96364515
Al       7.02500000      11.07500000       5.00000000       0.32658237      -0.01493405      -0.87185398
Al       5.44047981       9.09748384       9.62058779      -0.01455968       0.02285303       0.02621597
Al       5.24371197      11.13029669      12.32028996      -0.00695206       0.00145042      -0.00721658
Al       7.47492000       9.38929142      12.30432661       0.05421653      -0.01030522       0.01250853
Al       7.03485214      11.54931134       9.67113080      -0.01043850      -0.01217767       0.01875115
Al       5.00000000       9.05000000      15.01174432       0.29329792       0.14343610       0.00774191
Al       5.00000000      11.07500000      17.58295698       0.20951952      -0.01764660      -1.05293223
Al       7.02500000       9.05000000      17.58295698       0.35079434      -0.04130082      -1.04057663
Al       7.02500000      11.07500000      15.01174432       0.39731813       0.07695969      -0.04779493
Al       5.00000000      13.10000000       5.00000000      -0.17653269       0.00113906      -0.45321411
Al       5.00000000      15.12500000       7.02500000      -0.08549992      -0.00006067       1.46682692
Al       7.02500000      13.10000000       7.02500000       0.34677689       0.11273334       1.88758840
Al       7.02500000      15.12500000       5.00000000       0.32685776       0.00299966      -0.86777470
Al       5.03089669      13.55727842       9.74278099      -0.01080888      -0.02497241       0.01685242
Al       5.07879445      15.44352145      12.46155524      -0.04215155      -0.00117777      -0.01540288
Al       7.00854288      13.41979480      12.42712013      -0.01795603       0.00427158       0.00046975
Al       7.66439827      14.72326700       9.71147696      -0.00383625      -0.00279556       0.00642577
Al       5.00000000      13.10000000      15.01174432       0.19552829       0.06929120      -0.16382306
Al       5.00000000      15.12500000      17.58295698       0.20257308       0.00536173      -1.07117571
Al       7.02500000      13.10000000      17.58295698       0.35276076      -0.00743812      -1.04836955
Al       7.02500000      15.12500000      15.01174432       0.42997247       0.09631393       0.09579859
Al       5.00000000      17.15000000       5.00000000      -0.16383773       0.00886777      -0.46781860
Al       5.00000000      19.17500000       7.02500000      -0.13066323      -0.21532422       1.49611928
Al       7.02500000      17.15000000       7.02500000       0.42353100      -0.05214201       1.67498246
Al       7.02500000      19.17500000       5.00000000       0.32502538       0.04284752      -0.83146177
Al       5.59460910      16.77934032       9.67416154      -0.02265050       0.01718245       0.00767731
Al       5.57384484      18.81588815      12.27124714      -0.02064939       0.00944049      -0.02803772
Al       7.61956598      16.79010116      12.27133630       0.00733675       0.00442595      -0.00458531
Al       7.05674234      19.23010322       9.52854151      -0.05224283       0.01947698       0.01996566
Al       5.00000000      17.15000000      15.01174432       0.30128051       0.10649634       0.17453765
Al       5.00000000      19.17500000      17.58295698       0.21882026       0.03680659      -1.04112126
Al       7.02500000      17.15000000      17.58295698       0.34996929       0.01360515      -1.03606427
Al       7.02500000      19.17500000      15.01174432       0.40969074       0.01796612       0.04271887
Al       5.00000000      21.20000000       5.00000000      -0.08364890      -0.44384675      -0.27543212
Al       5.00000000      23.22500000       7.02500000       0.44917832      -0.44917832       0.92828027
Al       7.02500000      21.20000000       7.02500000       0.36656937      -0.36656937       1.55656875
Al       7.02500000      23.22500000       5.00000000       0.44384675       0.08364890      -0.27543212
Al       5.07000092      21.09944322       9.40915969       0.01306141      -0.02357419       0.02464157
Al       6.62287396      21.60212604      12.22516360      -0.00084360       0.00084360      -0.01707057
Al       8.63704342      19.58795658      12.28690143       0.03115228      -0.03115228      -0.00421049
Al       7.12555678      23.15499908       9.40915969       0.02357419      -0.01306141       0.02464157
Al       5.00000000      21.20000000      15.01174432       0.39332234      -0.68940027       0.15031038
Al       5.00000000      23.22500000      17.58295698       0.84827388      -0.84827388      -0.90900783
Al       7.02500000      21.20000000      17.58295698       0.34152551      -0.34152551      -1.07996938
Al       7.02500000      23.22500000      15.01174432       0.68940027      -0.39332234       0.15031038
Al       9.05000000       5.00000000       5.00000000      -0.02932019      -0.17215927      -0.42518036
Al       9.05000000       7.02500000       7.02500000       0.02580366       0.40409769       1.87533916
Al      11.07500000       5.00000000       7.02500000       0.08859874      -0.05033318       1.54960806
Al      11.07500000       7.02500000       5.00000000      -0.01172054       0.32397006      -0.87380098
Al       9.26388907       5.15955329       9.56012762       0.01866659       0.00868214       0.01835261
Al       9.36534243       7.36124742      12.50510243       0.02773977       0.03512533      -0.01323442
Al      11.08803663       5.16362729      12.31280349       0.04477219      -0.01841759      -0.00657595
Al      10.92287947       7.58373132       9.73830221       0.01532788      -0.00610896       0.00628491
Al       9.05000000       5.00000000      15.01174432       0.13469110       0.26866187       0.02598044
Al       9.05000000       7.02500000      17.58295698      -0.03669391       0.35003851      -1.05018513
Al      11.07500000       5.00000000      17.58295698      -0.01341106       0.21244236      -1.05656314
Al      11.07500000       7.02500000      15.01174432       0.05360122       0.38415207       0.22459440
Al       9.05000000       9.05000000       5.00000000      -0.03681792      -0.03905409      -0.94330934
Al       9.05000000      11.07500000       7.02500000      -0.00881373       0.11655988       1.79791858
Al      11.07500000       9.05000000       7.02500000       0.02360538       0.06625891       2.04650477
Al      11.07500000      11.07500000       5.00000000      -0.00798462      -0.01372291      -0.92179508
Al       9.22220915       9.87535611       9.75512225       0.02520836       0.01349202       0.00684269
Al       9.07868859      11.61109917      12.45571119      -0.00910603      -0.03310854      -0.01263255
Al      11.00686721       9.59410546      12.34374218      -0.03184748       0.00088157       0.00162275
Al      11.81405204      10.77423362       9.66934647      -0.03693134      -0.00497985       0.00982326
Al       9.05000000       9.05000000      15.01174432       0.03109653       0.20153355       0.15298120
Al       9.05000000      11.07500000      17.58295698      -0.03932224      -0.01494691      -0.99598478
Al      11.07500000       9.05000000      17.58295698      -0.01105181      -0.04350595      -0.99409049
Al      11.07500000      11.07500000      15.01174432       0.05235520       0.10429128       0.06632006
Al       9.05000000      13.10000000       5.00000000      -0.03683936      -0.00750716      -0.92868425
Al       9.05000000      15.12500000       7.02500000       0.04723775      -0.04260754       1.80479020
Al      11.07500000      13.10000000       7.02500000       0.03556332      -0.03396273       1.72171523
Al      11.07500000      15.12500000       5.00000000      -0.00973835       0.00029236      -0.90036807
Al       9.72142909      12.76277165       9.69072178      -0.00688799      -0.02953370      -0.00926285
Al       9.58817219      14.76336026      12.34806918      -0.00221853       0.00973789      -0.00164758
Al      11.64876204      12.80119626      12.27263321      -0.01344677      -0.02361728       0.02098557
Al      10.89706921      15.34155048       9.58362561       0.02893781      -0.02302829      -0.00471699
Al       9.05000000      13.10000000      15.01174432       0.01379489       0.16817742       0.33136695
Al       9.05000000      15.12500000      17.58295698      -0.03801001       0.00015408      -0.98838408
Al      11.07500000      13.10000000      17.58295698      -0.01166985      -0.00692208      -0.99026399
Al      11.07500000      15.12500000      15.01174432       0.05738109       0.00520010       0.04703183
Al       9.05000000      17.15000000       5.00000000      -0.03882381       0.01478837      -0.89163216
Al       9.05000000      19.17500000       7.02500000      -0.09545891       0.09545891       1.67708225
Al      11.07500000      17.15000000       7.02500000      -0.07921542       0.07921542       1.81536724
Al      11.07500000      19.17500000       5.00000000      -0.01478837       0.03882381      -0.89163216
Al       8.93985359      17.27600062       9.49507777       0.00771496      -0.01008267       0.02274797
Al      10.64076671      17.58423329      12.19307760       0.01727402      -0.01727402       0.01103716
Al      12.63489976      15.59010024      12.27097272       0.01317128      -0.01317128       0.00358238
Al      10.94899938      19.28514641       9.49507777       0.01008267      -0.00771496       0.02274797
Al       9.05000000      17.15000000      15.01174432       0.04002752       0.02570638      -0.07210964
Al       9.05000000      19.17500000      17.58295698      -0.04084575       0.04084575      -0.98125305
Al      11.07500000      17.15000000      17.58295698      -0.01121288       0.01121288      -0.98079847
Al      11.07500000      19.17500000      15.01174432      -0.02570638      -0.04002752      -0.07210964
Al       9.05000000      21.20000000       5.00000000      -0.04284752      -0.32502538      -0.83146177
Al       9.05000000      23.22500000       7.02500000       0.21532422       0.13066323       1.49611928
Al      11.07500000      21.20000000       7.02500000       0.05214201      -0.42353100       1.67498246
Al      11.07500000      23.22500000       5.00000000      -0.00886777       0.16383773      -0.46781860
Al       8.99489678      21.16825766       9.52854151      -0.01947698       0.05224283       0.01996566
Al       9.40911185      22.65115516      12.27124714      -0.00944049       0.02064939      -0.02803772
Al      11.43489884      20.60543402      12.27133630      -0.00442595      -0.00733675      -0.00458531
Al      11.44565968      22.63039090       9.67416154      -0.01718245       0.02265050       0.00767731
Al       9.05000000      21.20000000      15.01174432      -0.01796612      -0.40969074       0.04271887
Al       9.05000000      23.22500000      17.58295698      -0.03680659      -0.21882026      -1.04112126
Al      11.07500000      21.20000000      17.58295698      -0.01360515      -0.34996929      -1.03606427
Al      11.07500000      23.22500000      15.01174432      -0.10649634      -0.30128051       0.17453765
Al      13.10000000       5.00000000       5.00000000      -0.00453397      -0.15601562      -0.47205326
Al      13.10000000       7.02500000       7.02500000       0.00933316       0.48416111       1.84801583
Al      15.12500000       5.00000000       7.02500000       0.06971481      -0.20535308       1.73426800
Al      15.12500000       7.02500000       5.00000000       0.01028534       0.32972965      -0.84807654
Al      12.95761663       5.56265223       9.69114462       0.00189028      -0.00753612       0.01674100
Al      12.85376819       7.44751959      12.44172430      -0.00853432       0.00611653      -0.01766114
Al      15.02235614       5.51566029      12.29626826      -0.01017798      -0.00507673      -0.00859737
Al      15.64174077       6.81170830       9.55353856      -0.00440985      -0.04785915       0.02096154
Al      13.10000000       5.00000000      15.01174432      -0.04106969       0.33278178      -0.15864609
Al      13.10000000       7.02500000      17.58295698      -0.00066720       0.35204997      -1.04938685
Al      15.12500000       5.00000000      17.58295698       0.00519430       0.22037769      -1.04322511
Al      15.12500000       7.02500000      15.01174432       0.02133272       0.45029524       0.08922562
Al      13.10000000       9.05000000       5.00000000       0.00273404      -0.04007000      -0.92674655
Al      13.10000000      11.07500000       7.02500000       0.10421095      -0.01354376       1.62827852
Al      15.12500000       9.05000000       7.02500000       0.00708443      -0.02097884       1.87420840
Al      15.12500000      11.07500000       5.00000000       0.00654460      -0.01411992      -0.90543814
Al      13.62852681       8.68920903       9.71718649      -0.05793435      -0.00401854      -0.00275534
Al      13.59816222      10.79397572      12.38110526      -0.04475806       0.00462452       0.01005225
Al      15.47296452       8.76819402      12.34559363      -0.00022664      -0.00181417       0.02348936
Al      14.85008068      11.35833408       9.58574001       0.01858043      -0.01418449      -0.01941642
Al      13.10000000       9.05000000      15.01174432       0.02202351       0.08300911       0.12093672
Al      13.10000000      11.07500000      17.58295698       0.00043343      -0.01721945      -0.99428238
Al      15.12500000       9.05000000      17.58295698       0.00650118      -0.04309069      -0.99528514
Al      15.12500000      11.07500000      15.01174432       0.10156029      -0.00962729       0.09171189
Al      13.10000000      13.10000000       5.00000000       0.00014082      -0.00512754      -0.88819403
Al      13.10000000      15.12500000       7.02500000      -0.18946277       0.18946277       1.68382082
Al      15.12500000      13.10000000       7.02500000      -0.12196733       0.12196733       1.83261032
Al      15.12500000      15.12500000       5.00000000       0.00512754      -0.00014082      -0.88819403
Al      12.87610780      13.37561285       9.50868074       0.01359592      -0.00968552      -0.00196169
Al      14.63436780      13.59063220      12.16452984       0.01532374      -0.01532374       0.02978206
Al      14.84938715      15.34889220       9.50868074       0.00968552      -0.01359592      -0.00196169
Al      13.10000000      13.10000000      15.01174432       0.07442583       0.00427165      -0.07653200
Al      13.10000000      15.12500000      17.58295698      -0.00127080       0.00127080      -0.98696734
Al      15.12500000      13.10000000      17.58295698       0.00703280      -0.00703280      -0.98645592
Al      15.12500000      15.12500000      15.01174432      -0.00427165      -0.07442583      -0.07653200
Al      13.10000000      17.15000000       5.00000000      -0.00029236       0.00973835      -0.90036807
Al      13.10000000      19.17500000       7.02500000       0.04260754      -0.04723775       1.80479020
Al      15.12500000      17.15000000       7.02500000       0.03396273      -0.03556332       1.72171523
Al      15.12500000      19.17500000       5.00000000       0.00750716       0.03683936      -0.92868425
Al      12.88344952      17.32793079       9.58362561       0.02302829      -0.02893781      -0.00471699
Al      13.46163974      18.63682781      12.34806918      -0.00973789       0.00221853      -0.00164758
Al      15.42380374      16.57623796      12.27263321       0.02361728       0.01344677       0.02098557
Al      15.46222835      18.50357091       9.69072178       0.02953370       0.00688799      -0.00926285
Al      13.10000000      17.15000000      15.01174432      -0.00520010      -0.05738109       0.04703183
Al      13.10000000      19.17500000      17.58295698      -0.00015408       0.03801001      -0.98838408
Al      15.12500000      17.15000000      17.58295698       0.00692208       0.01166985      -0.99026399
Al      15.12500000      19.17500000      15.01174432      -0.16817742      -0.01379489       0.33136695
Al      13.10000000      21.20000000       5.00000000      -0.00299966      -0.32685776      -0.86777470
Al      13.10000000      23.22500000       7.02500000       0.00006067       0.08549992       1.46682692
Al      15.12500000      21.20000000       7.02500000      -0.11273334      -0.34677689       1.88758840
Al      15.12500000      23.22500000       5.00000000      -0.00113906       0.17653269      -0.45321411
Al      13.50173300      20.56060173       9.71147696       0.00279556       0.00383625       0.00642577
Al      12.78147855      23.14620555      12.46155524       0.00117777       0.04215155      -0.01540288
Al      14.80520520      21.21645712      12.42712013      -0.00427158       0.01795603       0.00046975
Al      14.66772158      23.19410331       9.74278099       0.02497241       0.01080888       0.01685242
Al      13.10000000      21.20000000      15.01174432      -0.09631393      -0.42997247       0.09579859
Al      13.10000000      23.22500000      17.58295698      -0.00536173      -0.20257308      -1.07117571
Al      15.12500000      21.20000000      17.58295698       0.00743812      -0.35276076      -1.04836955
Al      15.12500000      23.22500000      15.01174432      -0.06929120      -0.19552829      -0.16382306
Al      17.15000000       5.00000000       5.00000000       0.02437697      -0.16999016      -0.44577614
Al      17.15000000       7.02500000       7.02500000       0.14405911       0.30157925       1.54652151
Al      19.17500000       5.00000000       7.02500000      -0.09523264      -0.10040606       1.44703708
Al      19.17500000       7.02500000       5.00000000       0.03948905       0.33135177      -0.84291217
Al      17.65765080       4.86689716       9.82652057      -0.04103361      -0.00772199       0.01006787
Al      17.54440884       6.96719677      12.34758283       0.01070222      -0.01760606       0.00517330
Al      19.48026007       4.99496617      12.49841650      -0.01624929       0.00749342       0.00090306
Al      18.81891510       7.43503321       9.54228233       0.04511235       0.02818939       0.01927788
Al      17.15000000       5.00000000      15.01174432       0.05706031       0.24551406      -0.23505095
Al      17.15000000       7.02500000      17.58295698       0.01577898       0.35251843      -1.04441613
Al      19.17500000       5.00000000      17.58295698       0.03918845       0.21204670      -1.07849530
Al      19.17500000       7.02500000      15.01174432       0.15654091       0.39631210       0.01168846
Al      17.15000000       9.05000000       5.00000000       0.01584645      -0.04331459      -0.90621415
Al      17.15000000      11.07500000       7.02500000      -0.11755820       0.11755820       1.88460199
Al      19.17500000       9.05000000       7.02500000      -0.18805910       0.18805910       1.65923635
Al      19.17500000      11.07500000       5.00000000       0.04331459      -0.01584645      -0.90621415
Al      16.83114291       9.39527614       9.61555168       0.06695089       0.00018039       0.00756638
Al      16.61292618      11.61207382      12.25399981       0.03407284      -0.03407284       0.00711632
Al      18.54662711       9.67837289      12.22966203       0.02620452      -0.02620452      -0.00098901
Al      18.82972386      11.39385709       9.61555168      -0.00018039      -0.06695089       0.00756638
Al      17.15000000       9.05000000      15.01174432       0.03507519      -0.01890491      -0.03275811
Al      17.15000000      11.07500000      17.58295698       0.01668256      -0.01668256      -0.98617355
Al      19.17500000       9.05000000      17.58295698       0.04008646      -0.04008646      -0.98216909
Al      19.17500000      11.07500000      15.01174432       0.01890491      -0.03507519      -0.03275811
Al      17.15000000      13.10000000       5.00000000       0.01411992      -0.00654460      -0.90543814
Al      17.15000000      15.12500000       7.02500000       0.01354376      -0.10421095       1.62827852
Al      19.17500000      13.10000000       7.02500000       0.02097884      -0.00708443       1.87420840
Al      19.17500000      15.12500000       5.00000000       0.04007000      -0.00273404      -0.92674655
Al      16.86666592      13.37491932       9.58574001       0.01418449      -0.01858043      -0.01941642
Al      17.43102428      14.62683778      12.38110526      -0.00462452       0.04475806       0.01005225
Al      19.45680598      12.75203548      12.34559363       0.00181417       0.00022664       0.02348936
Al      19.53579097      14.59647319       9.71718649       0.00401854       0.05793435      -0.00275534
Al      17.15000000      13.10000000      15.01174432       0.00962729      -0.10156029       0.09171189
Al      17.15000000      15.12500000      17.58295698       0.01721945      -0.00043343      -0.99428238
Al      19.17500000      13.10000000      17.58295698       0.04309069      -0.00650118      -0.99528514
Al      19.17500000      15.12500000      15.01174432      -0.08300911      -0.02202351       0.12093672
Al      17.15000000      17.15000000       5.00000000       0.01372291       0.00798462      -0.92179508
Al      17.15000000      19.17500000       7.02500000      -0.11655988       0.00881373       1.79791858
Al      19.17500000      17.15000000       7.02500000      -0.06625891      -0.02360538       2.04650477
Al      19.17500000      19.17500000       5.00000000       0.03905409       0.03681792      -0.94330934
Al      17.45076638      16.41094796       9.66934647       0.00497985       0.03693134       0.00982326
Al      16.61390083      19.14631141      12.45571119       0.03310854       0.00910603      -0.01263255
Al      18.63089454      17.21813279      12.34374218      -0.00088157       0.03184748       0.00162275
Al      18.34964389      19.00279085       9.75512225      -0.01349202      -0.02520836       0.00684269
Al      17.15000000      17.15000000      15.01174432      -0.10429128      -0.05235520       0.06632006
Al      17.15000000      19.17500000      17.58295698       0.01494691       0.03932224      -0.99598478
Al      19.17500000      17.15000000      17.58295698       0.04350595       0.01105181      -0.99409049
Al      19.17500000      19.17500000      15.01174432      -0.20153355      -0.03109653       0.15298120
Al      17.15000000      21.20000000       5.00000000       0.01493405      -0.32658237      -0.87185398
Al      17.15000000      23.22500000       7.02500000      -0.12229879       0.13644673       1.78617316
Al      19.17500000      21.20000000       7.02500000      -0.02367914      -0.56963451       1.96364515
Al      19.17500000      23.22500000       5.00000000       0.03639547       0.16263637      -0.45191040
Al      16.67568866      21.19014786       9.67113080       0.01217767       0.01043850       0.01875115
Al      17.09470331      22.98128803      12.32028996      -0.00145042       0.00695206      -0.00721658
Al      18.83570858      20.75008000      12.30432661       0.01030522      -0.05421653       0.01250853
Al      19.12751616      22.78452019       9.62058779      -0.02285303       0.01455968       0.02621597
Al      17.15000000      21.20000000      15.01174432      -0.07695969      -0.39731813      -0.04779493
Al      17.15000000      23.22500000      17.58295698       0.01764660      -0.20951952      -1.05293223
Al      19.17500000      21.20000000      17.58295698       0.04130082      -0.35079434      -1.04057663
Al      19.17500000      23.22500000      15.01174432      -0.14343610      -0.29329792       0.00774191
Al      21.20000000       5.00000000       5.00000000      -0.45601019      -0.06414730      -0.35360885
Al      21.20000000       7.02500000       7.02500000      -0.52620459       0.52620459       1.77041542
Al      23.22500000       5.00000000       7.02500000      -0.63081194       0.63081194       1.23842512
Al      23.22500000       7.02500000       5.00000000       0.06414730       0.45601019      -0.35360885
Al      20.78093575       5.41478669       9.63377948       0.02287726      -0.00809673       0.00760633
Al      20.49274052       7.73225948      12.13441918      -0.00168945       0.00168945       0.00334112
Al      22.43022381       5.79477619      12.29697205       0.01673259      -0.01673259      -0.01111100
Al      22.81021331       7.44406425       9.63377948       0.00809673      -0.02287726       0.00760633
Al      21.20000000       5.00000000      15.01174432      -0.42374791       0.35120471       0.43592408
Al      21.20000000       7.02500000      17.58295698      -0.34679445       0.34679445      -1.08136026
Al      23.22500000       5.00000000      17.58295698      -0.83884792       0.83884792      -0.96460598
Al      23.22500000       7.02500000      15.01174432      -0.35120471       0.42374791       0.43592408
Al      21.20000000       9.05000000       5.00000000      -0.33135177      -0.03948905      -0.84291217
Al      21.20000000      11.07500000       7.02500000      -0.30157925      -0.14405911       1.54652151
Al      23.22500000       9.05000000       7.02500000       0.10040606       0.09523264       1.44703708
Al      23.22500000      11.07500000       5.00000000       0.16999016      -0.02437697      -0.44577614
Al      20.78996679       9.40608490       9.54228233      -0.02818939      -0.04511235       0.01927788
Al      21.25780323      10.68059116      12.34758283       0.01760606      -0.01070222       0.00517330
Al      23.23003383       8.74473993      12.49841650      -0.00749342       0.01624929       0.00090306
Al      23.35810284      10.56734920       9.82652057       0.00772199       0.04103361       0.01006787
Al      21.20000000       9.05000000      15.01174432      -0.39631210      -0.15654091       0.01168846
Al      21.20000000      11.07500000      17.58295698      -0.35251843      -0.01577898      -1.04441613
Al      23.22500000       9.05000000      17.58295698      -0.21204670      -0.03918845      -1.07849530
Al      23.22500000      11.07500000      15.01174432      -0.24551406      -0.05706031      -0.23505095
Al      21.20000000      13.10000000       5.00000000      -0.32972965      -0.01028534      -0.84807654
Al      21.20000000      15.12500000       7.02500000      -0.48416111      -0.00933316       1.84801583
Al      23.22500000      13.10000000       7.02500000       0.20535308      -0.06971481       1.73426800
Al      23.22500000      15.12500000       5.00000000       0.15601562       0.00453397      -0.47205326
Al      21.41329170      12.58325923       9.55353856       0.04785915       0.00440985       0.02096154
Al      20.77748041      15.37123181      12.44172430      -0.00611653       0.00853432      -0.01766114
Al      22.70933971      13.20264386      12.29626826       0.00507673       0.01017798      -0.00859737
Al      22.66234777      15.26738337       9.69114462       0.00753612      -0.00189028       0.01674100
Al      21.20000000      13.10000000      15.01174432      -0.45029524      -0.02133272       0.08922562
Al      21.20000000      15.12500000      17.58295698      -0.35204997       0.00066720      -1.04938685
Al      23.22500000      13.10000000      17.58295698      -0.22037769      -0.00519430      -1.04322511
Al      23.22500000      15.12500000      15.01174432      -0.33278178       0.04106969      -0.15864609
Al      21.20000000      17.15000000       5.00000000      -0.32397006       0.01172054      -0.87380098
Al      21.20000000      19.17500000       7.02500000      -0.40409769      -0.02580366       1.87533916
Al      23.22500000      17.15000000       7.02500000       0.05033318      -0.08859874       1.54960806
Al      23.22500000      19.17500000       5.00000000       0.17215927       0.02932019      -0.42518036
Al      20.64126868      17.30212053       9.73830221       0.00610896      -0.01532788       0.00628491
Al      20.86375258      18.85965757      12.50510243      -0.03512533      -0.02773977      -0.01323442
Al      23.06137271      17.13696337      12.31280349       0.01841759      -0.04477219      -0.00657595
Al      23.06544671      18.96111093       9.56012762      -0.00868214      -0.01866659       0.01835261
Al      21.20000000      17.15000000      15.01174432      -0.38415207      -0.05360122       0.22459440