299
Lattice="28.224999999999998 0.0 0.0 0.0 28.224999999999998 0.0 0.0 0.0 20.125" Properties=species:S:1:pos:R:3 energy=-16428.884597979064 pbc="T T T"
Al       5.00000000       5.00000000       5.00000000
Al       5.00000000       7.02500000       7.02500000
Al       7.02500000       5.00000000       7.02500000
Al       7.02500000       7.02500000       5.00000000
Al       5.43392435       5.42871420       9.61132973
Al       5.20938463       7.23562796      12.09174058
Al       7.26539406       5.16037818      12.08925306
Al       7.37826626       7.33498862       9.56464364
Al       5.00000000       5.00000000      14.57497219
Al       5.00000000       7.02500000      17.02139281
Al       7.02500000       5.00000000      17.02139281
Al       7.02500000       7.02500000      14.57497219
Al       5.00000000       9.05000000       5.00000000
Al       5.00000000      11.07500000       7.02500000
Al       7.02500000       9.05000000       7.02500000
Al       7.02500000      11.07500000       5.00000000
Al       5.07887835       9.03381410       9.50204736
Al       5.04259011      11.09549824      12.03145664
Al       7.18232389       9.21818380      12.05687035
Al       7.04409653      11.13546597       9.51840188
Al       5.00000000       9.05000000      14.57497219
Al       5.00000000      11.07500000      17.02139281
Al       7.02500000       9.05000000      17.02139281
Al       7.02500000      11.07500000      14.57497219
Al       5.00000000      13.10000000       5.00000000
Al       5.00000000      15.12500000       7.02500000
Al       7.02500000      13.10000000       7.02500000
Al       7.02500000      15.12500000       5.00000000
Al       5.02861525      13.16777615       9.52227585
Al       5.09386056      15.14293533      12.06546409
Al       7.10514918      13.10871815      12.05877087
Al       7.23328178      15.00561885       9.53786637
Al       5.00000000      13.10000000      14.57497219
Al       5.00000000      15.12500000      17.02139281
Al       7.02500000      13.10000000      17.02139281
Al       7.02500000      15.12500000      14.57497219
Al       5.00000000      17.15000000       5.00000000
Al       5.00000000      19.17500000       7.02500000
Al       7.02500000      17.15000000       7.02500000
Al       7.02500000      19.17500000       5.00000000
Al       5.18759790      17.03971579       9.52849140
Al       5.25946070      18.98237227      12.02557855
Al       7.29764622      16.99539462      12.04317232
Al       7.10900311      19.14925870       9.48703261
Al       5.00000000      17.15000000      14.57497219
Al       5.00000000      19.17500000      17.02139281
Al       7.02500000      17.15000000      17.02139281
Al       7.02500000      19.17500000      14.57497219
Al       5.00000000      21.20000000       5.00000000
Al       5.00000000      23.22500000       7.02500000
Al       7.02500000      21.20000000       7.02500000
Al       7.02500000      23.22500000       5.00000000
Al       5.08687471      21.05061078       9.45834201
Al       6.81846083      21.40653917      12.04971322
Al       8.81288654      19.41211346      12.05508278
Al       7.17438922      23.13812529       9.45834201
Al       5.00000000      21.20000000      14.57497219
Al       5.00000000      23.22500000      17.02139281
Al       7.02500000      21.20000000      17.02139281
Al       7.02500000      23.22500000      14.57497219
Al       9.05000000       5.00000000       5.00000000
Al       9.05000000       7.02500000       7.02500000
Al      11.07500000       5.00000000       7.02500000
Al      11.07500000       7.02500000       5.00000000
Al       9.05303140       5.03000115       9.49213959
Al       9.15221488       7.22682773      12.08720657
Al      11.04027634       5.10273176      12.03086744
Al      10.98632506       7.16724056       9.53356068
Al       9.05000000       5.00000000      14.57497219
Al       9.05000000       7.02500000      17.02139281
Al      11.07500000       5.00000000      17.02139281
Al      11.07500000       7.02500000      14.57497219
Al       9.05000000       9.05000000       5.00000000
Al       9.05000000      11.07500000       7.02500000
Al      11.07500000       9.05000000       7.02500000
Al      11.07500000      11.07500000       5.00000000
Al       9.19388523       9.34244168       9.53994076
Al       9.14956134      11.18117845      12.09039635
Al      11.14087322       9.18576242      12.06456969
Al      11.33852821      11.04875191       9.53738947
Al       9.05000000       9.05000000      14.57497219
Al       9.05000000      11.07500000      17.02139281
Al      11.07500000       9.05000000      17.02139281
Al      11.07500000      11.07500000      14.57497219
Al       9.05000000      13.10000000       5.00000000
Al       9.05000000      15.12500000       7.02500000
Al      11.07500000      13.10000000       7.02500000
Al      11.07500000      15.12500000       5.00000000
Al       9.22172830      12.96306358       9.52934491
Al       9.26958567      14.97203590      12.04782755
Al      11.30418280      12.99280215      12.05292783
Al      11.01707523      15.18566258       9.48996013
Al       9.05000000      13.10000000      14.57497219
Al       9.05000000      15.12500000      17.02139281
Al      11.07500000      13.10000000      17.02139281
Al      11.07500000      15.12500000      14.57497219
Al       9.05000000      17.15000000       5.00000000
Al       9.05000000      19.17500000       7.02500000
Al      11.07500000      17.15000000       7.02500000
Al      11.07500000      19.17500000       5.00000000
Al       9.04743425      17.17690197       9.48497739
Al      10.81140687      17.41359313      12.03342298
Al      12.79865471      15.42634529      12.03004910
Al      11.04809803      19.17756575       9.48497739
Al       9.05000000      17.15000000      14.57497219
Al       9.05000000      19.17500000      17.02139281
Al      11.07500000      17.15000000      17.02139281
Al      11.07500000      19.17500000      14.57497219
Al       9.05000000      21.20000000       5.00000000
Al       9.05000000      23.22500000       7.02500000
Al      11.07500000      21.20000000       7.02500000
Al      11.07500000      23.22500000       5.00000000
Al       9.07574130      21.11599689       9.48703261
Al       9.24262773      22.96553930      12.02557855
Al      11.22960538      20.92735378      12.04317232
Al      11.18528421      23.03740210       9.52849140
Al       9.05000000      21.20000000      14.57497219
Al       9.05000000      23.22500000      17.02139281
Al      11.07500000      21.20000000      17.02139281
Al      11.07500000      23.22500000      14.57497219
Al      13.10000000       5.00000000       5.00000000
Al      13.10000000       7.02500000       7.02500000
Al      15.12500000       5.00000000       7.02500000
Al      15.12500000       7.02500000       5.00000000
Al      13.07032733       5.17750341       9.53840604
Al      13.08067156       7.14593236      12.07307135
Al      15.14904557       5.15833657      12.03524579
Al      15.27634361       7.02536562       9.51782878
Al      13.10000000       5.00000000      14.57497219
Al      13.10000000       7.02500000      17.02139281
Al      15.12500000       5.00000000      17.02139281
Al      15.12500000       7.02500000      14.57497219
Al      13.10000000       9.05000000       5.00000000
Al      13.10000000      11.07500000       7.02500000
Al      15.12500000       9.05000000       7.02500000
Al      15.12500000      11.07500000       5.00000000
Al      13.21989964       8.94487602       9.52715626
Al      13.31347311      10.99371426      12.06593318
Al      15.27920346       8.97376065      12.05260698
Al      14.99696075      11.19284783       9.47837199
Al      13.10000000       9.05000000      14.57497219
Al      13.10000000      11.07500000      17.02139281
Al      15.12500000       9.05000000      17.02139281
Al      15.12500000      11.07500000      14.57497219
Al      13.10000000      13.10000000       5.00000000
Al      13.10000000      15.12500000       7.02500000
Al      15.12500000      13.10000000       7.02500000
Al      15.12500000      15.12500000       5.00000000
Al      13.03659857      13.22877142       9.48043734
Al      14.77983319      13.44516681      12.01326239
Al      14.99622858      15.18840143       9.48043734
Al      13.10000000      13.10000000      14.57497219
Al      13.10000000      15.12500000      17.02139281
Al      15.12500000      13.10000000      17.02139281
Al      15.12500000      15.12500000      14.57497219
Al      13.10000000      17.15000000       5.00000000
Al      13.10000000      19.17500000       7.02500000
Al      15.12500000      17.15000000       7.02500000
Al      15.12500000      19.17500000       5.00000000
Al      13.03933742      17.20792477       9.48996013
Al      13.25296410      18.95541433      12.04782755
Al      15.23219785      16.92081720      12.05292783
Al      15.26193642      19.00327170       9.52934491
Al      13.10000000      17.15000000      14.57497219
Al      13.10000000      19.17500000      17.02139281
Al      15.12500000      17.15000000      17.02139281
Al      15.12500000      19.17500000      14.57497219
Al      13.10000000      21.20000000       5.00000000
Al      13.10000000      23.22500000       7.02500000
Al      15.12500000      21.20000000       7.02500000
Al      15.12500000      23.22500000       5.00000000
Al      13.21938115      20.99171822       9.53786637
Al      13.08206467      23.13113944      12.06546409
Al      15.11628185      21.11985082      12.05877087
Al      15.05722385      23.19638475       9.52227585
Al      13.10000000      21.20000000      14.57497219
Al      13.10000000      23.22500000      17.02139281
Al      15.12500000      21.20000000      17.02139281
Al      15.12500000      23.22500000      14.57497219
Al      17.15000000       5.00000000       5.00000000
Al      17.15000000       7.02500000       7.02500000
Al      19.17500000       5.00000000       7.02500000
Al      19.17500000       7.02500000       5.00000000
Al      17.26786401       4.97406100       9.54190142
Al      17.31813288       7.05100320      12.05978638
Al      19.30846290       5.03728728      12.07074977
Al      18.98583781       7.24474094       9.46459158
Al      17.15000000       5.00000000      14.57497219
Al      17.15000000       7.02500000      17.02139281
Al      19.17500000       5.00000000      17.02139281
Al      19.17500000       7.02500000      14.57497219
Al      17.15000000       9.05000000       5.00000000
Al      17.15000000      11.07500000       7.02500000
Al      19.17500000       9.05000000       7.02500000
Al      19.17500000      11.07500000       5.00000000
Al      17.00657832       9.22584301       9.47395581
Al      16.74847164      11.47652836      11.99990933
Al      18.68969187       9.53530813      11.98715415
Al      18.99915699      11.21842168       9.47395581
Al      17.15000000       9.05000000      14.57497219
Al      17.15000000      11.07500000      17.02139281
Al      19.17500000       9.05000000      17.02139281
Al      19.17500000      11.07500000      14.57497219
Al      17.15000000      13.10000000       5.00000000
Al      17.15000000      15.12500000       7.02500000
Al      19.17500000      13.10000000       7.02500000
Al      19.17500000      15.12500000       5.00000000
Al      17.03215217      13.22803925       9.47837199
Al      17.23128574      14.91152689      12.06593318
Al      19.25123935      12.94579654      12.05260698
Al      19.28012398      15.00510036       9.52715626
Al      17.15000000      13.10000000      14.57497219
Al      17.15000000      15.12500000      17.02139281
Al      19.17500000      13.10000000      17.02139281
Al      19.17500000      15.12500000      14.57497219
Al      17.15000000      17.15000000       5.00000000
Al      17.15000000      19.17500000       7.02500000
Al      19.17500000      17.15000000       7.02500000
Al      19.17500000      19.17500000       5.00000000
Al      17.17624809      16.88647179       9.53738947
Al      17.04382155      19.07543866      12.09039635
Al      19.03923758      17.08412678      12.06456969
Al      18.88255832      19.03111477       9.53994076
Al      17.15000000      17.15000000      14.57497219
Al      17.15000000      19.17500000      17.02139281
Al      19.17500000      17.15000000      17.02139281
Al      19.17500000      19.17500000      14.57497219
Al      17.15000000      21.20000000       5.00000000
Al      17.15000000      23.22500000       7.02500000
Al      19.17500000      21.20000000       7.02500000
Al      19.17500000      23.22500000       5.00000000
Al      17.08953403      21.18090347       9.51840188
Al      17.12950176      23.18240989      12.03145664
Al      19.00681620      21.04267611      12.05687035
Al      19.19118590      23.14612165       9.50204736
Al      17.15000000      21.20000000      14.57497219
Al      17.15000000      23.22500000      17.02139281
Al      19.17500000      21.20000000      17.02139281
Al      19.17500000      23.22500000      14.57497219
Al      21.20000000       5.00000000       5.00000000
Al      21.20000000       7.02500000       7.02500000
Al      23.22500000       5.00000000       7.02500000
Al      23.22500000       7.02500000       5.00000000
Al      20.93604609       5.21799687       9.43684905
Al      20.61484314       7.61015686      11.97553915
Al      22.53453592       5.69046408      11.95699666
Al      23.00700313       7.28895391       9.43684905
Al      21.20000000       5.00000000      14.57497219
Al      21.20000000       7.02500000      17.02139281
Al      23.22500000       5.00000000      17.02139281
Al      23.22500000       7.02500000      14.57497219
Al      21.20000000       9.05000000       5.00000000
Al      21.20000000      11.07500000       7.02500000
Al      23.22500000       9.05000000       7.02500000
Al      23.22500000      11.07500000       5.00000000
Al      20.98025906       9.23916219       9.46459158
Al      21.17399680      10.90686712      12.05978638
Al      23.18771272       8.91653710      12.07074977
Al      23.25093900      10.95713599       9.54190142
Al      21.20000000       9.05000000      14.57497219
Al      21.20000000      11.07500000      17.02139281
Al      23.22500000       9.05000000      17.02139281
Al      23.22500000      11.07500000      14.57497219
Al      21.20000000      13.10000000       5.00000000
Al      21.20000000      15.12500000       7.02500000
Al      23.22500000      13.10000000       7.02500000
Al      23.22500000      15.12500000       5.00000000
Al      21.19963438      12.94865639       9.51782878
Al      21.07906764      15.14432844      12.07307135
Al      23.06666343      13.07595443      12.03524579
Al      23.04749659      15.15467267       9.53840604
Al      21.20000000      13.10000000      14.57497219
Al      21.20000000      15.12500000      17.02139281
Al      23.22500000      13.10000000      17.02139281
Al      23.22500000      15.12500000      14.57497219
Al      21.20000000      17.15000000       5.00000000
Al      21.20000000      19.17500000       7.02500000
Al      23.22500000      17.15000000       7.02500000
Al      23.22500000      19.17500000       5.00000000
Al      21.05775944      17.23867494       9.53356068
Al      20.99817227      19.07278512      12.08720657
Al      23.12226824      17.18472366      12.03086744
Al      23.19499885      19.17196860       9.49213959
Al      21.20000000      17.15000000      14.57497219
Al      21.20000000      19.17500000      17.02139281
Al      23.22500000      17.15000000      17.02139281
Al      23.22500000      19.17500000      14.57497219
Al      21.20000000      21.20000000       5.00000000
Al      21.20000000      23.22500000       7.02500000
Al      23.22500000      21.20000000       7.02500000
Al      23.22500000      23.22500000       5.00000000
Al      20.89001138      20.84673374       9.56464364
Al      20.98937204      23.01561537      12.09174058
Al      23.06462182      20.95960594      12.08925306
Al      22.79628580      22.79107565       9.61132973
Al      21.20000000      21.20000000      14.57497219
Al      21.20000000      23.22500000      17.02139281
Al      23.22500000      21.20000000      17.02139281
Al      23.22500000      23.22500000      14.57497219
