299
Lattice="28.224999999999998 0.0 0.0 0.0 28.224999999999998 0.0 0.0 0.0 20.125" Properties=species:S:1:pos:R:3:forces:R:3 energy=-16451.308384620475 pbc="T T T"
Al       5.00000000       5.00000000       5.00000000       0.36164966       0.36210554       0.15453570
Al       5.00000000       7.02500000       7.02500000      -0.13292298       0.47901305       1.09613966
Al       7.02500000       5.00000000       7.02500000       0.46093307      -0.13563946       1.09389423
Al       7.02500000       7.02500000       5.00000000       0.32710981       0.32629954      -0.67834846
Al       5.29841377       5.30555471       9.42468283      -0.01681412      -0.00799794       0.01837776
Al       5.18226874       7.22394299      11.73791812      -0.01230801      -0.00598222       0.02200261
Al       7.17263130       5.06746086      11.75389524      -0.00838634      -0.01652250       0.01980912
Al       7.25046479       7.24444470       9.36947300       0.00971403       0.00616872       0.01001987
Al       5.00000000       5.00000000      14.07873613       0.71552103       0.76096567      -0.49078470
Al       5.00000000       7.02500000      16.38337502       0.20228241       0.47446155      -0.72204596
Al       7.02500000       5.00000000      16.38337502       0.47644434       0.19831762      -0.73169102
Al       7.02500000       7.02500000      14.07873613       0.46129138       0.44141329      -0.11240906
Al       5.00000000       9.05000000       5.00000000      -0.17863583      -0.03669690      -0.29602202
Al       5.00000000      11.07500000       7.02500000      -0.29083738      -0.00087202       1.20724012
Al       7.02500000       9.05000000       7.02500000       0.37807320       0.06945493       1.31085981
Al       7.02500000      11.07500000       5.00000000       0.32785715      -0.01766906      -0.73270429
Al       5.03040217       9.05562777       9.33012641      -0.01904099       0.00360420       0.00795448
Al       4.99577753      11.04454686      11.70755964      -0.02151441       0.00018235       0.01697564
Al       7.21375507       9.22313980      11.71853781       0.01882489       0.01503020       0.01787698
Al       7.08669114      11.08489855       9.34722332       0.00510093       0.01161868       0.00534409
Al       5.00000000       9.05000000      14.07873613       0.04695066       0.11069312      -0.13483819
Al       5.00000000      11.07500000      16.38337502       0.08977467      -0.02025645      -0.62741785
Al       7.02500000       9.05000000      16.38337502       0.34619081      -0.04262130      -0.45832972
Al       7.02500000      11.07500000      14.07873613       0.36765613       0.05735586      -0.20818626
Al       5.00000000      13.10000000       5.00000000      -0.18444173      -0.00601453      -0.30255001
Al       5.00000000      15.12500000       7.02500000      -0.30231733       0.02131797       1.25338018
Al       7.02500000      13.10000000       7.02500000       0.32200501       0.01297613       1.42689676
Al       7.02500000      15.12500000       5.00000000       0.32992268       0.00644892      -0.73186454
Al       5.02161294      13.09329370       9.35060474      -0.01411986       0.00087117       0.01248173
Al       5.04570689      15.13033867      11.70780456      -0.01329417       0.00122989       0.01586774
Al       7.05828941      13.06533523      11.71500822       0.01817804       0.00085507       0.00709166
Al       7.06269133      15.13748863       9.35069852       0.01699077      -0.00111927       0.01631952
Al       5.00000000      13.10000000      14.07873613      -0.03082512      -0.02614524      -0.33526392
Al       5.00000000      15.12500000      16.38337502       0.08801731       0.00146971      -0.62203113
Al       7.02500000      13.10000000      16.38337502       0.34522768      -0.00940748      -0.45373625
Al       7.02500000      15.12500000      14.07873613       0.31385710       0.00594213      -0.26967592
Al       5.00000000      17.15000000       5.00000000      -0.18270338       0.01893668      -0.29872507
Al       5.00000000      19.17500000       7.02500000      -0.25851384      -0.13774125       1.00248049
Al       7.02500000      17.15000000       7.02500000       0.31593826      -0.04383347       1.36176640
Al       7.02500000      19.17500000       5.00000000       0.32982268       0.04131289      -0.72216200
Al       5.00344216      17.17427691       9.35296700      -0.01945788      -0.00192782       0.01253061
Al       5.00311280      19.21117394      11.72520988      -0.01873286      -0.00822948       0.01137713
Al       7.05816180      17.19619001      11.71753937       0.00963794      -0.00394838       0.00891652
Al       7.14681631      19.08178971       9.33401874       0.01332737      -0.00994510      -0.00017954
Al       5.00000000      17.15000000      14.07873613      -0.03417857       0.02744147      -0.31849868
Al       5.00000000      19.17500000      16.38337502       0.09011729       0.03413821      -0.62760575
Al       7.02500000      17.15000000      16.38337502       0.34514165       0.01227009      -0.45136607
Al       7.02500000      19.17500000      14.07873613       0.39887424      -0.09220999      -0.12021930
Al       5.00000000      21.20000000       5.00000000      -0.07459481      -0.45700021      -0.19597179
Al       5.00000000      23.22500000       7.02500000       0.38239980      -0.38239980       1.10123107
Al       7.02500000      21.20000000       7.02500000       0.45252185      -0.45252185       1.21808627
Al       7.02500000      23.22500000       5.00000000       0.45700021       0.07459481      -0.19597179
Al       5.11267122      21.03400898       9.30115662      -0.01007678       0.00807470      -0.00045807
Al       5.38720148      22.83779852      11.63477670      -0.00972436       0.00972436       0.00607201
Al       7.35238293      20.87261707      11.69096365       0.02810205      -0.02810205      -0.00149465
Al       7.19099102      23.11232878       9.30115662      -0.00807470       0.01007678      -0.00045807
Al       5.00000000      21.20000000      14.07873613       0.15772249      -0.50877322      -0.11717531
Al       5.00000000      23.22500000      16.38337502       0.67726175      -0.67726175      -0.74771301
Al       7.02500000      21.20000000      16.38337502       0.33990858      -0.33990858      -0.49518825
Al       7.02500000      23.22500000      14.07873613       0.50877322      -0.15772249      -0.11717531
Al       9.05000000       5.00000000       5.00000000      -0.03553836      -0.17912409      -0.29417064
Al       9.05000000       7.02500000       7.02500000       0.05590381       0.35521329       1.31012047
Al      11.07500000       5.00000000       7.02500000      -0.01441205      -0.29925877       1.22739165
Al      11.07500000       7.02500000       5.00000000      -0.01495476       0.32673439      -0.73303114
Al       9.03428881       5.00060755       9.33440842       0.00707505      -0.01792746       0.00969959
Al       9.09490517       7.11413249      11.73118498       0.00330414       0.00798924       0.02162849
Al      11.05641200       5.02226608      11.70713772       0.00355659      -0.02217468       0.01927341
Al      11.04651390       7.06854628       9.35049601      -0.00080418      -0.00277009       0.00948368
Al       9.05000000       5.00000000      14.07873613       0.10886032       0.00693413      -0.12023838
Al       9.05000000       7.02500000      16.38337502      -0.03854516       0.34350530      -0.46272517
Al      11.07500000       5.00000000      16.38337502      -0.01714415       0.09264386      -0.62920662
Al      11.07500000       7.02500000      14.07873613       0.00721288       0.30802315      -0.21030351
Al       9.05000000       9.05000000       5.00000000      -0.04121113      -0.04282784      -0.79055513
Al       9.05000000      11.07500000       7.02500000       0.05352320       0.08279080       1.34495002
Al      11.07500000       9.05000000       7.02500000       0.05570425       0.02995433       1.34997865
Al      11.07500000      11.07500000       5.00000000      -0.01485192      -0.01563761      -0.78919860
Al       9.18134806       9.19214448       9.35301811      -0.01057713      -0.00976962       0.01029656
Al       9.25393076      11.26134609      11.71785029       0.01948344       0.02313875       0.02044578
Al      11.08840432       9.08072318      11.72678622       0.00997216       0.00895479       0.02585240
Al      11.15591142      11.14944824       9.36147364       0.02683800       0.02764408       0.01227331
Al       9.05000000       9.05000000      14.07873613       0.07313077       0.09035361      -0.12587209
Al       9.05000000      11.07500000      16.38337502      -0.03986505      -0.02091659      -0.39905404
Al      11.07500000       9.05000000      16.38337502      -0.01710737      -0.04445325      -0.40356629
Al      11.07500000      11.07500000      14.07873613       0.13745141       0.12752500      -0.22843560
Al       9.05000000      13.10000000       5.00000000      -0.03975001      -0.00199966      -0.78878478
Al       9.05000000      15.12500000       7.02500000      -0.07153238      -0.02385644       1.26916503
Al      11.07500000      13.10000000       7.02500000      -0.06191860      -0.06404072       1.19651967
Al      11.07500000      15.12500000       5.00000000      -0.01292040       0.00702792      -0.75926644
Al       9.07866092      13.12096183       9.35197472       0.01834065       0.00935015       0.01832620
Al       9.03813642      15.13293117      11.71727364       0.02090762      -0.00116232       0.00718056
Al      11.38067323      13.39785566      11.68111069      -0.02292654      -0.03040952       0.01079210
Al      11.10141656      15.10523487       9.25527706       0.01254794      -0.00599694       0.00079345
Al       9.05000000      13.10000000      14.07873613       0.11118126       0.12022910      -0.24375001
Al       9.05000000      15.12500000      16.38337502      -0.03657912       0.00141700      -0.39903799
Al      11.07500000      13.10000000      16.38337502      -0.01376370      -0.00628628      -0.39520487
Al      11.07500000      15.12500000      14.07873613      -0.01570466      -0.01928786       0.15629850
Al       9.05000000      17.15000000       5.00000000      -0.03913467       0.01667633      -0.78265678
Al       9.05000000      19.17500000       7.02500000       0.08155529      -0.08155529       1.26164003
Al      11.07500000      17.15000000       7.02500000      -0.03173378       0.03173378       1.16943440
Al      11.07500000      19.17500000       5.00000000      -0.01667633       0.03913467      -0.78265678
Al       9.12080728      17.08915778       9.34271931       0.01959607      -0.01910033       0.00099972
Al       9.34930133      18.87569867      11.70669864       0.02706052      -0.02706052       0.00497147
Al      11.45360747      16.77139253      11.66808463       0.00331709      -0.00331709       0.00924491
Al      11.13584222      19.10419272       9.34271931       0.01910033      -0.01959607       0.00099972
Al       9.05000000      17.15000000      14.07873613       0.11219112      -0.16073094      -0.15502808
Al       9.05000000      19.17500000      16.38337502      -0.03657364       0.03657364      -0.39426835
Al      11.07500000      17.15000000      16.38337502      -0.01168556       0.01168556      -0.39285989
Al      11.07500000      19.17500000      14.07873613       0.16073094      -0.11219112      -0.15502808
Al       9.05000000      21.20000000       5.00000000      -0.04131289      -0.32982268      -0.72216200
Al       9.05000000      23.22500000       7.02500000       0.13774125       0.25851384       1.00248049
Al      11.07500000      21.20000000       7.02500000       0.04383347      -0.31593826       1.36176640
Al      11.07500000      23.22500000       5.00000000      -0.01893668       0.18270338      -0.29872507
Al       9.14321029      21.07818369       9.33401874       0.00994510      -0.01332737      -0.00017954
Al       9.01382606      23.22188720      11.72520988       0.00822948       0.01873286       0.01137713
Al      11.02880999      21.16683820      11.71753937       0.00394838      -0.00963794       0.00891652
Al      11.05072309      23.22155784       9.35296700       0.00192782       0.01945788       0.01253061
Al       9.05000000      21.20000000      14.07873613       0.09220999      -0.39887424      -0.12021930
Al       9.05000000      23.22500000      16.38337502      -0.03413821      -0.09011729      -0.62760575
Al      11.07500000      21.20000000      16.38337502      -0.01227009      -0.34514165      -0.45136607
Al      11.07500000      23.22500000      14.07873613      -0.02744147       0.03417857      -0.31849868
Al      13.10000000       5.00000000       5.00000000      -0.00175990      -0.18265455      -0.30254164
Al      13.10000000       7.02500000       7.02500000      -0.00515203       0.30343523       1.42294526
Al      15.12500000       5.00000000       7.02500000       0.02584075      -0.30068256       1.25728087
Al      15.12500000       7.02500000       5.00000000       0.01147094       0.32667251      -0.73112914
Al      13.09512794       5.03698930       9.35142825       0.00013657      -0.01650468       0.01155379
Al      13.08930505       7.07923016      11.71421555       0.00028121       0.00704354       0.01502213
Al      15.12968406       5.04305012      11.70757543       0.00290816      -0.02039076       0.01817411
Al      15.14746198       7.06649628       9.35072247       0.00653365       0.00530368       0.01015783
Al      13.10000000       5.00000000      14.07873613      -0.01554626      -0.01598113      -0.34021876
Al      13.10000000       7.02500000      16.38337502      -0.00521129       0.34326596      -0.45638964
Al      15.12500000       5.00000000      16.38337502       0.00600879       0.09167807      -0.62582822
Al      15.12500000       7.02500000      14.07873613       0.02110572       0.30802929      -0.25153942
Al      13.10000000       9.05000000       5.00000000      -0.00178659      -0.04562801      -0.79362594
Al      13.10000000      11.07500000       7.02500000       0.00796125      -0.06545837       1.30039083
Al      15.12500000       9.05000000       7.02500000      -0.02684969       0.00649284       1.37700704
Al      15.12500000      11.07500000       5.00000000       0.00728583      -0.01871432      -0.78810384
Al      13.09809384       9.04607742       9.34689204       0.00286686       0.00579258       0.01542385
Al      13.12817657      11.06067832      11.71837676       0.00762991       0.01424825       0.01707741
Al      15.15673363       9.03623845      11.72159340       0.00276396       0.00562070       0.01308591
Al      15.08111106      11.11256184       9.35158597      -0.01411651       0.02018500       0.01205270
Al      13.10000000       9.05000000      14.07873613       0.02156142      -0.02384401      -0.20671326
Al      13.10000000      11.07500000      16.38337502      -0.00487956      -0.01748948      -0.40247580
Al      15.12500000       9.05000000      16.38337502       0.00629089      -0.04414759      -0.40074586
Al      15.12500000      11.07500000      14.07873613      -0.11732244       0.10647120      -0.22601486
Al      13.10000000      13.10000000       5.00000000      -0.00487005       0.00009546      -0.75988621
Al      13.10000000      15.12500000       7.02500000      -0.00383554       0.00383554       0.96432125
Al      15.12500000      13.10000000       7.02500000       0.06517090      -0.06517090       1.20179521
Al      15.12500000      15.12500000       5.00000000      -0.00009546       0.00487005      -0.75988621
Al      13.11386932      13.13076884       9.26301903       0.00707656       0.01684836       0.00718305
Al      14.79601381      13.42898619      11.68310665       0.01287452      -0.01287452       0.00390610
Al      15.09423116      15.11113068       9.26301903      -0.01684836      -0.00707656       0.00718305
Al      13.10000000      13.10000000      14.07873613      -0.01974972       0.00731816       0.13609159
Al      13.10000000      15.12500000      16.38337502      -0.00345908       0.00345908      -0.36262186
Al      15.12500000      13.10000000      16.38337502       0.00466644      -0.00466644      -0.39682716
Al      15.12500000      15.12500000      14.07873613      -0.00731816       0.01974972       0.13609159
Al      13.10000000      17.15000000       5.00000000      -0.00702792       0.01292040      -0.75926644
Al      13.10000000      19.17500000       7.02500000       0.02385644       0.07153238       1.26916503
Al      15.12500000      17.15000000       7.02500000       0.06404072       0.06191860       1.19651967
Al      15.12500000      19.17500000       5.00000000       0.00199966       0.03975001      -0.78878478
Al      13.11976513      17.12358344       9.25527706       0.00599694      -0.01254794       0.00079345
Al      13.09206883      19.18686358      11.71727364       0.00116232      -0.02090762       0.00718056
Al      14.82714434      16.84432677      11.68111069       0.03040952       0.02292654       0.01079210
Al      15.10403817      19.14633908       9.35197472      -0.00935015      -0.01834065       0.01832620
Al      13.10000000      17.15000000      14.07873613       0.01928786       0.01570466       0.15629850
Al      13.10000000      19.17500000      16.38337502      -0.00141700       0.03657912      -0.39903799
Al      15.12500000      17.15000000      16.38337502       0.00628628       0.01376370      -0.39520487
Al      15.12500000      19.17500000      14.07873613      -0.12022910      -0.11118126      -0.24375001
Al      13.10000000      21.20000000       5.00000000      -0.00644892      -0.32992268      -0.73186454
Al      13.10000000      23.22500000       7.02500000      -0.02131797       0.30231733       1.25338018
Al      15.12500000      21.20000000       7.02500000      -0.01297613      -0.32200501       1.42689676
Al      15.12500000      23.22500000       5.00000000       0.00601453       0.18444173      -0.30255001
Al      13.08751137      21.16230867       9.35069852       0.00111927      -0.01699077       0.01631952
Al      13.09466133      23.17929311      11.70780456      -0.00122989       0.01329417       0.01586774
Al      15.15966477      21.16671059      11.71500822      -0.00085507      -0.01817804       0.00709166
Al      15.13170630      23.20338706       9.35060474      -0.00087117       0.01411986       0.01248173
Al      13.10000000      21.20000000      14.07873613      -0.00594213      -0.31385710      -0.26967592
Al      13.10000000      23.22500000      16.38337502      -0.00146971      -0.08801731      -0.62203113
Al      15.12500000      21.20000000      16.38337502       0.00940748      -0.34522768      -0.45373625
Al      15.12500000      23.22500000      14.07873613       0.02614524       0.03082512      -0.33526392
Al      17.15000000       5.00000000       5.00000000       0.02288123      -0.17958833      -0.29512241
Al      17.15000000       7.02500000       7.02500000      -0.01951276       0.31111331       1.36495501
Al      19.17500000       5.00000000       7.02500000      -0.12030023      -0.25360816       1.02087575
Al      19.17500000       7.02500000       5.00000000       0.04467627       0.32903431      -0.71823089
Al      17.17463628       5.00230945       9.35206123       0.00229796      -0.02340287       0.01008634
Al      17.19148176       7.05556769      11.71748007       0.00681286      -0.00466255       0.01725899
Al      19.20462276       5.00352371      11.72507460      -0.00192350      -0.02269326       0.01470121
Al      19.08858015       7.14070524       9.33751241      -0.00224789       0.00733917      -0.00211109
Al      17.15000000       5.00000000      14.07873613       0.02664834      -0.02846137      -0.31313035
Al      17.15000000       7.02500000      16.38337502       0.01765157       0.34390598      -0.45655143
Al      19.17500000       5.00000000      16.38337502       0.03587607       0.09640032      -0.63344508
Al      19.17500000       7.02500000      14.07873613      -0.06363811       0.38279048      -0.14187330
Al      17.15000000       9.05000000       5.00000000       0.02473046      -0.04785242      -0.78765643
Al      17.15000000      11.07500000       7.02500000      -0.05566217       0.05566217       1.36937342
Al      19.17500000       9.05000000       7.02500000      -0.05802421       0.05802421       1.27357921
Al      19.17500000      11.07500000       5.00000000       0.04785242      -0.02473046      -0.78765643
Al      17.09562736       9.12202225       9.34400750      -0.01183362       0.00719199      -0.00395734
Al      16.92967578      11.29532422      11.71134110      -0.03938533       0.03938533       0.01503025
Al      18.95813060       9.26686940      11.71213732      -0.00391636       0.00391636       0.01645809
Al      19.10297775      11.12937264       9.34400750      -0.00719199       0.01183362      -0.00395734
Al      17.15000000       9.05000000      14.07873613      -0.07711482       0.05907118      -0.15621629
Al      17.15000000      11.07500000      16.38337502       0.01922474      -0.01922474      -0.39779654
Al      19.17500000       9.05000000      16.38337502       0.04163512      -0.04163512      -0.40124960
Al      19.17500000      11.07500000      14.07873613      -0.05907118       0.07711482      -0.15621629
Al      17.15000000      13.10000000       5.00000000       0.01871432      -0.00728583      -0.78810384
Al      17.15000000      15.12500000       7.02500000       0.06545837      -0.00796125       1.30039083
Al      19.17500000      13.10000000       7.02500000      -0.00649284       0.02684969       1.37700704
Al      19.17500000      15.12500000       5.00000000       0.04562801       0.00178659      -0.79362594
Al      17.11243816      13.14388894       9.35158597      -0.02018500       0.01411651       0.01205270
Al      17.16432168      15.09682343      11.71837676      -0.01424825      -0.00762991       0.01707741
Al      19.18876155      13.06826637      11.72159340      -0.00562070      -0.00276396       0.01308591
Al      19.17892258      15.12690616       9.34689204      -0.00579258      -0.00286686       0.01542385
Al      17.15000000      13.10000000      14.07873613      -0.10647120       0.11732244      -0.22601486
Al      17.15000000      15.12500000      16.38337502       0.01748948       0.00487956      -0.40247580
Al      19.17500000      13.10000000      16.38337502       0.04414759      -0.00629089      -0.40074586
Al      19.17500000      15.12500000      14.07873613       0.02384401      -0.02156142      -0.20671326
Al      17.15000000      17.15000000       5.00000000       0.01563761       0.01485192      -0.78919860
Al      17.15000000      19.17500000       7.02500000      -0.08279080      -0.05352320       1.34495002
Al      19.17500000      17.15000000       7.02500000      -0.02995433      -0.05570425       1.34997865
Al      19.17500000      19.17500000       5.00000000       0.04282784       0.04121113      -0.79055513
Al      17.07555176      17.06908858       9.36147364      -0.02764408      -0.02683800       0.01227331
Al      16.96365391      18.97106924      11.71785029      -0.02313875      -0.01948344       0.02044578
Al      19.14427682      17.13659568      11.72678622      -0.00895479      -0.00997216       0.02585240
Al      19.03285552      19.04365194       9.35301811       0.00976962       0.01057713       0.01029656
Al      17.15000000      17.15000000      14.07873613      -0.12752500      -0.13745141      -0.22843560
Al      17.15000000      19.17500000      16.38337502       0.02091659       0.03986505      -0.39905404
Al      19.17500000      17.15000000      16.38337502       0.04445325       0.01710737      -0.40356629
Al      19.17500000      19.17500000      14.07873613      -0.09035361      -0.07313077      -0.12587209
Al      17.15000000      21.20000000       5.00000000       0.01766906      -0.32785715      -0.73270429
Al      17.15000000      23.22500000       7.02500000       0.00087202       0.29083738       1.20724012
Al      19.17500000      21.20000000       7.02500000      -0.06945493      -0.37807320       1.31085981
Al      19.17500000      23.22500000       5.00000000       0.03669690       0.17863583      -0.29602202
Al      17.14010145      21.13830886       9.34722332      -0.01161868      -0.00510093       0.00534409
Al      17.18045314      23.22922247      11.70755964      -0.00018235       0.02151441       0.01697564
Al      19.00186020      21.01124493      11.71853781      -0.01503020      -0.01882489       0.01787698
Al      19.16937223      23.19459783       9.33012641      -0.00360420       0.01904099       0.00795448
Al      17.15000000      21.20000000      14.07873613      -0.05735586      -0.36765613      -0.20818626
Al      17.15000000      23.22500000      16.38337502       0.02025645      -0.08977467      -0.62741785
Al      19.17500000      21.20000000      16.38337502       0.04262130      -0.34619081      -0.45832972
Al      19.17500000      23.22500000      14.07873613      -0.11069312      -0.04695066      -0.13483819
Al      21.20000000       5.00000000       5.00000000      -0.45790638      -0.07004082      -0.19162269
Al      21.20000000       7.02500000       7.02500000      -0.44297907       0.44297907       1.24176899
Al      23.22500000       5.00000000       7.02500000      -0.38365898       0.38365898       1.10558505
Al      23.22500000       7.02500000       5.00000000       0.07004082       0.45790638      -0.19162269
Al      21.04168230       5.10644734       9.30560544       0.00676485      -0.00959380       0.00059689
Al      20.92488399       7.30011601      11.69502325      -0.02195887       0.02195887       0.00644912
Al      22.87777135       5.34722865      11.63716308       0.00907487      -0.00907487       0.00710221
Al      23.11855266       7.18331770       9.30560544       0.00959380      -0.00676485       0.00059689
Al      21.20000000       5.00000000      14.07873613      -0.49359414       0.15778867      -0.14826401
Al      21.20000000       7.02500000      16.38337502      -0.34166001       0.34166001      -0.50367155
Al      23.22500000       5.00000000      16.38337502      -0.68092130       0.68092130      -0.75678840
Al      23.22500000       7.02500000      14.07873613      -0.15778867       0.49359414      -0.14826401
Al      21.20000000       9.05000000       5.00000000      -0.32903431      -0.04467627      -0.71823089
Al      21.20000000      11.07500000       7.02500000      -0.31111331       0.01951276       1.36495501
Al      23.22500000       9.05000000       7.02500000       0.25360816       0.12030023       1.02087575
Al      23.22500000      11.07500000       5.00000000       0.17958833      -0.02288123      -0.29512241
Al      21.08429476       9.13641985       9.33751241      -0.00733917       0.00224789      -0.00211109
Al      21.16943231      11.03351824      11.71748007       0.00466255      -0.00681286       0.01725899
Al      23.22147629       9.02037724      11.72507460       0.02269326       0.00192350       0.01470121
Al      23.22269055      11.05036372       9.35206123       0.02340287      -0.00229796       0.01008634
Al      21.20000000       9.05000000      14.07873613      -0.38279048       0.06363811      -0.14187330
Al      21.20000000      11.07500000      16.38337502      -0.34390598      -0.01765157      -0.45655143
Al      23.22500000       9.05000000      16.38337502      -0.09640032      -0.03587607      -0.63344508
Al      23.22500000      11.07500000      14.07873613       0.02846137      -0.02664834      -0.31313035
Al      21.20000000      13.10000000       5.00000000      -0.32667251      -0.01147094      -0.73112914
Al      21.20000000      15.12500000       7.02500000      -0.30343523       0.00515203       1.42294526
Al      23.22500000      13.10000000       7.02500000       0.30068256      -0.02584075       1.25728087
Al      23.22500000      15.12500000       5.00000000       0.18265455       0.00175990      -0.30254164
Al      21.15850372      13.07753802       9.35072247      -0.00530368      -0.00653365       0.01015783
Al      21.14576984      15.13569495      11.71421555      -0.00704354      -0.00028121       0.01502213
Al      23.18194988      13.09531594      11.70757543       0.02039076      -0.00290816       0.01817411
Al      23.18801070      15.12987206       9.35142825       0.01650468      -0.00013657       0.01155379
Al      21.20000000      13.10000000      14.07873613      -0.30802929      -0.02110572      -0.25153942
Al      21.20000000      15.12500000      16.38337502      -0.34326596       0.00521129      -0.45638964
Al      23.22500000      13.10000000      16.38337502      -0.09167807      -0.00600879      -0.62582822
Al      23.22500000      15.12500000      14.07873613       0.01598113       0.01554626      -0.34021876
Al      21.20000000      17.15000000       5.00000000      -0.32673439       0.01495476      -0.73303114
Al      21.20000000      19.17500000       7.02500000      -0.35521329      -0.05590381       1.31012047
Al      23.22500000      17.15000000       7.02500000       0.29925877       0.01441205       1.22739165
Al      23.22500000      19.17500000       5.00000000       0.17912409       0.03553836      -0.29417064
Al      21.15645372      17.17848610       9.35049601       0.00277009       0.00080418       0.00948368
Al      21.11086751      19.13009483      11.73118498      -0.00798924      -0.00330414       0.02162849
Al      23.20273392      17.16858800      11.70713772       0.02217468      -0.00355659       0.01927341
Al      23.22439245      19.19071119       9.33440842       0.01792746      -0.00707505       0.00969959
Al      21.20000000      17.15000000      14.07873613      -0.30802315      -0.00721288      -0.21030351