299
Lattice="28.224999999999998 0.0 0.0 0.0 28.224999999999998 0.0 0.0 0.0 20.125" Properties=species:S:1:pos:R:3 energy=-16408.48512846426 pbc="T T T"
Al       5.00000000       5.00000000       5.00000000
Al       5.00000000       7.02500000       7.02500000
Al       7.02500000       5.00000000       7.02500000
Al       7.02500000       7.02500000       5.00000000
Al       5.74522895       5.72855518       9.69573059
Al       5.40015768       7.36839574      12.32975114
Al       7.42684264       5.26856056      12.27665177
Al       7.73343103       7.54807702       9.73861624
Al       5.00000000       5.00000000      14.92264289
Al       5.00000000       7.02500000      17.46839800
Al       7.02500000       5.00000000      17.46839800
Al       7.02500000       7.02500000      14.92264289
Al       5.00000000       9.05000000       5.00000000
Al       5.00000000      11.07500000       7.02500000
Al       7.02500000       9.05000000       7.02500000
Al       7.02500000      11.07500000       5.00000000
Al       5.28110416       9.02016803       9.60150104
Al       5.13959623      11.10104902      12.24492080
Al       7.35355540       9.35300967      12.24692259
Al       6.98006192      11.37589708       9.61191078
Al       5.00000000       9.05000000      14.92264289
Al       5.00000000      11.07500000      17.46839800
Al       7.02500000       9.05000000      17.46839800
Al       7.02500000      11.07500000      14.92264289
Al       5.00000000      13.10000000       5.00000000
Al       5.00000000      15.12500000       7.02500000
Al       7.02500000      13.10000000       7.02500000
Al       7.02500000      15.12500000       5.00000000
Al       4.99400151      13.41046869       9.66239093
Al       5.12662629      15.33707567      12.33122904
Al       7.05034393      13.26303870      12.30856547
Al       7.50383878      14.80479956       9.66140287
Al       5.00000000      13.10000000      14.92264289
Al       5.00000000      15.12500000      17.46839800
Al       7.02500000      13.10000000      17.46839800
Al       7.02500000      15.12500000      14.92264289
Al       5.00000000      17.15000000       5.00000000
Al       5.00000000      19.17500000       7.02500000
Al       7.02500000      17.15000000       7.02500000
Al       7.02500000      19.17500000       5.00000000
Al       5.44306447      16.85837903       9.61431374
Al       5.50610924      18.85433503      12.18926966
Al       7.55485906      16.85936484      12.20465103
Al       7.10014564      19.18061028       9.52290278
Al       5.00000000      17.15000000      14.92264289
Al       5.00000000      19.17500000      17.46839800
Al       7.02500000      17.15000000      17.46839800
Al       7.02500000      19.17500000      14.92264289
Al       5.00000000      21.20000000       5.00000000
Al       5.00000000      23.22500000       7.02500000
Al       7.02500000      21.20000000       7.02500000
Al       7.02500000      23.22500000       5.00000000
Al       5.09928664      21.05329455       9.45038197
Al       6.63833668      21.58666332      12.19161834
Al       8.63419448      19.59080552      12.24332622
Al       7.17170545      23.12571336       9.45038197
Al       5.00000000      21.20000000      14.92264289
Al       5.00000000      23.22500000      17.46839800
Al       7.02500000      21.20000000      17.46839800
Al       7.02500000      23.22500000      14.92264289
Al       9.05000000       5.00000000       5.00000000
Al       9.05000000       7.02500000       7.02500000
Al      11.07500000       5.00000000       7.02500000
Al      11.07500000       7.02500000       5.00000000
Al       9.14141538       5.08561683       9.54728973
Al       9.26902639       7.33510638      12.41152523
Al      11.04108785       5.15725368      12.23806592
Al      10.86141763       7.43818866       9.67554326
Al       9.05000000       5.00000000      14.92264289
Al       9.05000000       7.02500000      17.46839800
Al      11.07500000       5.00000000      17.46839800
Al      11.07500000       7.02500000      14.92264289
Al       9.05000000       9.05000000       5.00000000
Al       9.05000000      11.07500000       7.02500000
Al      11.07500000       9.05000000       7.02500000
Al      11.07500000      11.07500000       5.00000000
Al       9.22285655       9.76115860       9.73326007
Al       9.13993940      11.44394896      12.41251697
Al      11.08757324       9.43063806      12.28221802
Al      11.69756874      10.88167108       9.65707675
Al       9.05000000       9.05000000      14.92264289
Al       9.05000000      11.07500000      17.46839800
Al      11.07500000       9.05000000      17.46839800
Al      11.07500000      11.07500000      14.92264289
Al       9.05000000      13.10000000       5.00000000
Al       9.05000000      15.12500000       7.02500000
Al      11.07500000      13.10000000       7.02500000
Al      11.07500000      15.12500000       5.00000000
Al       9.52605585      12.79015826       9.65262577
Al       9.49326805      14.81306474      12.26496693
Al      11.56111741      12.87635421      12.21843172
Al      10.93871323      15.27022315       9.54241270
Al       9.05000000      13.10000000      14.92264289
Al       9.05000000      15.12500000      17.46839800
Al      11.07500000      13.10000000      17.46839800
Al      11.07500000      15.12500000      14.92264289
Al       9.05000000      17.15000000       5.00000000
Al       9.05000000      19.17500000       7.02500000
Al      11.07500000      17.15000000       7.02500000
Al      11.07500000      19.17500000       5.00000000
Al       8.99480540      17.22710679       9.49003836
Al      10.63558476      17.58941524      12.17300719
Al      12.61901835      15.60598165      12.19813555
Al      10.99789321      19.23019460       9.49003836
Al       9.05000000      17.15000000      14.92264289
Al       9.05000000      19.17500000      17.46839800
Al      11.07500000      17.15000000      17.46839800
Al      11.07500000      19.17500000      14.92264289
Al       9.05000000      21.20000000       5.00000000
Al       9.05000000      23.22500000       7.02500000
Al      11.07500000      21.20000000       7.02500000
Al      11.07500000      23.22500000       5.00000000
Al       9.04438972      21.12485436       9.52290278
Al       9.37066497      22.71889076      12.18926966
Al      11.36563516      20.67014094      12.20465103
Al      11.36662097      22.78193553       9.61431374
Al       9.05000000      21.20000000      14.92264289
Al       9.05000000      23.22500000      17.46839800
Al      11.07500000      21.20000000      17.46839800
Al      11.07500000      23.22500000      14.92264289
Al      13.10000000       5.00000000       5.00000000
Al      13.10000000       7.02500000       7.02500000
Al      15.12500000       5.00000000       7.02500000
Al      15.12500000       7.02500000       5.00000000
Al      12.97079974       5.48933333       9.67766266
Al      12.94970583       7.31688009      12.37286161
Al      15.10594531       5.39969315      12.23432581
Al      15.53190342       6.89492317       9.56648754
Al      13.10000000       5.00000000      14.92264289
Al      13.10000000       7.02500000      17.46839800
Al      15.12500000       5.00000000      17.46839800
Al      15.12500000       7.02500000      14.92264289
Al      13.10000000       9.05000000       5.00000000
Al      13.10000000      11.07500000       7.02500000
Al      15.12500000       9.05000000       7.02500000
Al      15.12500000      11.07500000       5.00000000
Al      13.45657884       8.73830456       9.66096302
Al      13.52420212      10.87709896      12.32584637
Al      15.41240838       8.84443560      12.26854247
Al      14.88971800      11.28880732       9.55618549
Al      13.10000000       9.05000000      14.92264289
Al      13.10000000      11.07500000      17.46839800
Al      15.12500000       9.05000000      17.46839800
Al      15.12500000      11.07500000      14.92264289
Al      13.10000000      13.10000000       5.00000000
Al      13.10000000      15.12500000       7.02500000
Al      15.12500000      13.10000000       7.02500000
Al      15.12500000      15.12500000       5.00000000
Al      12.93823720      13.33702239       9.49838017
Al      14.61168859      13.61331141      12.15445324
Al      14.88797761      15.28676280       9.49838017
Al      13.10000000      13.10000000      14.92264289
Al      13.10000000      15.12500000      17.46839800
Al      15.12500000      13.10000000      17.46839800
Al      15.12500000      15.12500000      14.92264289
Al      13.10000000      17.15000000       5.00000000
Al      13.10000000      19.17500000       7.02500000
Al      15.12500000      17.15000000       7.02500000
Al      15.12500000      19.17500000       5.00000000
Al      12.95477685      17.28628677       9.54241270
Al      13.41193526      18.73173195      12.26496693
Al      15.34864579      16.66388259      12.21843172
Al      15.43484174      18.69894415       9.65262577
Al      13.10000000      17.15000000      14.92264289
Al      13.10000000      19.17500000      17.46839800
Al      15.12500000      17.15000000      17.46839800
Al      15.12500000      19.17500000      14.92264289
Al      13.10000000      21.20000000       5.00000000
Al      13.10000000      23.22500000       7.02500000
Al      15.12500000      21.20000000       7.02500000
Al      15.12500000      23.22500000       5.00000000
Al      13.42020044      20.72116122       9.66140287
Al      12.88792433      23.09837371      12.33122904
Al      14.96196130      21.17465607      12.30856547
Al      14.81453131      23.23099849       9.66239093
Al      13.10000000      21.20000000      14.92264289
Al      13.10000000      23.22500000      17.46839800
Al      15.12500000      21.20000000      17.46839800
Al      15.12500000      23.22500000      14.92264289
Al      17.15000000       5.00000000       5.00000000
Al      17.15000000       7.02500000       7.02500000
Al      19.17500000       5.00000000       7.02500000
Al      19.17500000       7.02500000       5.00000000
Al      17.51778547       4.89407698       9.72142160
Al      17.48323447       7.02463819      12.29746123
Al      19.40762166       5.02328906      12.38022520
Al      18.87238725       7.37398946       9.54590988
Al      17.15000000       5.00000000      14.92264289
Al      17.15000000       7.02500000      17.46839800
Al      19.17500000       5.00000000      17.46839800
Al      19.17500000       7.02500000      14.92264289
Al      17.15000000       9.05000000       5.00000000
Al      17.15000000      11.07500000       7.02500000
Al      19.17500000       9.05000000       7.02500000
Al      19.17500000      11.07500000       5.00000000
Al      16.89577194       9.34351215       9.57354358
Al      16.59156477      11.63343523      12.18401187
Al      18.52886995       9.69613005      12.18746335
Al      18.88148785      11.32922806       9.57354358
Al      17.15000000       9.05000000      14.92264289
Al      17.15000000      11.07500000      17.46839800
Al      19.17500000       9.05000000      17.46839800
Al      19.17500000      11.07500000      14.92264289
Al      17.15000000      13.10000000       5.00000000
Al      17.15000000      15.12500000       7.02500000
Al      19.17500000      13.10000000       7.02500000
Al      19.17500000      15.12500000       5.00000000
Al      16.93619268      13.33528200       9.55618549
Al      17.34790104      14.70079788      12.32584637
Al      19.38056440      12.81259162      12.26854247
Al      19.48669544      14.76842116       9.66096302
Al      17.15000000      13.10000000      14.92264289
Al      17.15000000      15.12500000      17.46839800
Al      19.17500000      13.10000000      17.46839800
Al      19.17500000      15.12500000      14.92264289
Al      17.15000000      17.15000000       5.00000000
Al      17.15000000      19.17500000       7.02500000
Al      19.17500000      17.15000000       7.02500000
Al      19.17500000      19.17500000       5.00000000
Al      17.34332892      16.52743126       9.65707675
Al      16.78105104      19.08506060      12.41251697
Al      18.79436194      17.13742676      12.28221802
Al      18.46384140      19.00214345       9.73326007
Al      17.15000000      17.15000000      14.92264289
Al      17.15000000      19.17500000      17.46839800
Al      19.17500000      17.15000000      17.46839800
Al      19.17500000      19.17500000      14.92264289
Al      17.15000000      21.20000000       5.00000000
Al      17.15000000      23.22500000       7.02500000
Al      19.17500000      21.20000000       7.02500000
Al      19.17500000      23.22500000       5.00000000
Al      16.84910292      21.24493808       9.61191078
Al      17.12395098      23.08540377      12.24492080
Al      18.87199033      20.87144460      12.24692259
Al      19.20483197      22.94389584       9.60150104
Al      17.15000000      21.20000000      14.92264289
Al      17.15000000      23.22500000      17.46839800
Al      19.17500000      21.20000000      17.46839800
Al      19.17500000      23.22500000      14.92264289
Al      21.20000000       5.00000000       5.00000000
Al      21.20000000       7.02500000       7.02500000
Al      23.22500000       5.00000000       7.02500000
Al      23.22500000       7.02500000       5.00000000
Al      20.81931027       5.35681303       9.58093428
Al      20.47515329       7.74984671      12.15172710
Al      22.40928351       5.81571649      12.21227295
Al      22.86818697       7.40568973       9.58093428
Al      21.20000000       5.00000000      14.92264289
Al      21.20000000       7.02500000      17.46839800
Al      23.22500000       5.00000000      17.46839800
Al      23.22500000       7.02500000      14.92264289
Al      21.20000000       9.05000000       5.00000000
Al      21.20000000      11.07500000       7.02500000
Al      23.22500000       9.05000000       7.02500000
Al      23.22500000      11.07500000       5.00000000
Al      20.85101054       9.35261275       9.54590988
Al      21.20036181      10.74176553      12.29746123
Al      23.20171094       8.81737834      12.38022520
Al      23.33092302      10.70721453       9.72142160
Al      21.20000000       9.05000000      14.92264289
Al      21.20000000      11.07500000      17.46839800
Al      23.22500000       9.05000000      17.46839800
Al      23.22500000      11.07500000      14.92264289
Al      21.20000000      13.10000000       5.00000000
Al      21.20000000      15.12500000       7.02500000
Al      23.22500000      13.10000000       7.02500000
Al      23.22500000      15.12500000       5.00000000
Al      21.33007683      12.69309658       9.56648754
Al      20.90811991      15.27529417      12.37286161
Al      22.82530685      13.11905469      12.23432581
Al      22.73566667      15.25420026       9.67766266
Al      21.20000000      13.10000000      14.92264289
Al      21.20000000      15.12500000      17.46839800
Al      23.22500000      13.10000000      17.46839800
Al      23.22500000      15.12500000      14.92264289
Al      21.20000000      17.15000000       5.00000000
Al      21.20000000      19.17500000       7.02500000
Al      23.22500000      17.15000000       7.02500000
Al      23.22500000      19.17500000       5.00000000
Al      20.78681134      17.36358237       9.67554326
Al      20.88989362      18.95597361      12.41152523
Al      23.06774632      17.18391215      12.23806592
Al      23.13938317      19.08358462       9.54728973
Al      21.20000000      17.15000000      14.92264289
Al      21.20000000      19.17500000      17.46839800
Al      23.22500000      17.15000000      17.46839800
Al      23.22500000      19.17500000      14.92264289
Al      21.20000000      21.20000000       5.00000000
Al      21.20000000      23.22500000       7.02500000
Al      23.22500000      21.20000000       7.02500000
Al      23.22500000      23.22500000       5.00000000
Al      20.67692298      20.49156897       9.73861624
Al      20.85660426      22.82484232      12.32975114
Al      22.95643944      20.79815736      12.27665177
Al      22.49644482      22.47977105       9.69573059
Al      21.20000000      21.20000000      14.92264289
Al      21.20000000      23.22500000      17.46839800
Al      23.22500000      21.20000000      17.46839800
Al      23.22500000      23.22500000      14.92264289
