299
Lattice="28.224999999999998 0.0 0.0 0.0 28.224999999999998 0.0 0.0 0.0 20.125" Properties=species:S:1:pos:R:3 energy=-16368.335828670397 pbc="T T T"
Al       5.00000000       5.00000000       5.00000000
Al       5.00000000       7.02500000       7.02500000
Al       7.02500000       5.00000000       7.02500000
Al       7.02500000       7.02500000       5.00000000
Al       7.01304195       6.96783399       9.14695426
Al       5.88614590       7.48235269      13.44231078
Al       7.88269933       6.04852258      11.75594845
Al       9.71856484       8.43807118      11.59903340
Al       5.00000000       5.00000000      15.95326439
Al       5.00000000       7.02500000      18.79348279
Al       7.02500000       5.00000000      18.79348279
Al       7.02500000       7.02500000      15.95326439
Al       5.00000000       9.05000000       5.00000000
Al       5.00000000      11.07500000       7.02500000
Al       7.02500000       9.05000000       7.02500000
Al       7.02500000      11.07500000       5.00000000
Al       6.68061348       8.99913820      11.07018478
Al       5.70576801      11.43363755      12.90830163
Al       7.82313433       9.67125107      13.57217885
Al       6.88224929      10.93911758       9.05480132
Al       5.00000000       9.05000000      15.95326439
Al       5.00000000      11.07500000      18.79348279
Al       7.02500000       9.05000000      18.79348279
Al       7.02500000      11.07500000      15.95326439
Al       5.00000000      13.10000000       5.00000000
Al       5.00000000      15.12500000       7.02500000
Al       7.02500000      13.10000000       7.02500000
Al       7.02500000      15.12500000       5.00000000
Al       6.35205043      13.30725664      10.35446518
Al       6.19433798      14.73575517      13.05568571
Al       8.21277881      12.74008616      13.35313314
Al       8.81199374      14.79867280      11.16837072
Al       5.00000000      13.10000000      15.95326439
Al       5.00000000      15.12500000      18.79348279
Al       7.02500000      13.10000000      18.79348279
Al       7.02500000      15.12500000      15.95326439
Al       5.00000000      17.15000000       5.00000000
Al       5.00000000      19.17500000       7.02500000
Al       7.02500000      17.15000000       7.02500000
Al       7.02500000      19.17500000       5.00000000
Al       6.47075152      16.15676700       9.80757215
Al       6.68016124      17.55853916      13.58630542
Al       9.09873274      15.61834470      13.73426761
Al       8.48147750      17.71732686      11.52850495
Al       5.00000000      17.15000000      15.95326439
Al       5.00000000      19.17500000      18.79348279
Al       7.02500000      17.15000000      18.79348279
Al       7.02500000      19.17500000      15.95326439
Al       5.00000000      21.20000000       5.00000000
Al       5.00000000      23.22500000       7.02500000
Al       7.02500000      21.20000000       7.02500000
Al       7.02500000      23.22500000       5.00000000
Al       7.01393499      19.16793074       9.42298781
Al       7.62532665      20.59967339      12.98692174
Al       9.51493331      18.71006670      13.85575022
Al       9.05706929      21.21106504       9.42298785
Al       5.00000000      21.20000000      15.95326439
Al       5.00000000      23.22500000      18.79348279
Al       7.02500000      21.20000000      18.79348279
Al       7.02500000      23.22500000      15.95326439
Al       9.05000000       5.00000000       5.00000000
Al       9.05000000       7.02500000       7.02500000
Al      11.07500000       5.00000000       7.02500000
Al      11.07500000       7.02500000       5.00000000
Al       9.91628945       6.05215283       9.59707051
Al       9.12699277       7.13445004      13.95276392
Al      11.24182852       5.83789271      12.38678317
Al      11.84263636       8.15270416       9.70207522
Al       9.05000000       5.00000000      15.95326439
Al       9.05000000       7.02500000      18.79348279
Al      11.07500000       5.00000000      18.79348279
Al      11.07500000       7.02500000      15.95326439
Al       9.05000000       9.05000000       5.00000000
Al       9.05000000      11.07500000       7.02500000
Al      11.07500000       9.05000000       7.02500000
Al      11.07500000      11.07500000       5.00000000
Al       9.01001719       9.00688995       9.05951872
Al       8.73022402      11.20309187      11.10806249
Al      10.54153349      10.66785621      13.23133014
Al      11.07384980      10.96023264       9.21904711
Al       9.05000000       9.05000000      15.95326439
Al       9.05000000      11.07500000      18.79348279
Al      11.07500000       9.05000000      18.79348279
Al      11.07500000      11.07500000      15.95326439
Al       9.05000000      13.10000000       5.00000000
Al       9.05000000      15.12500000       7.02500000
Al      11.07500000      13.10000000       7.02500000
Al      11.07500000      15.12500000       5.00000000
Al       9.04289415      13.09275903       9.04205215
Al      11.00557488      13.44083263      13.86243311
Al      11.22866539      12.92819710      11.27627737
Al      11.15361159      15.11667025       9.37423358
Al       9.05000000      13.10000000      15.95326439
Al       9.05000000      15.12500000      18.79348279
Al      11.07500000      13.10000000      18.79348279
Al      11.07500000      15.12500000      15.95326439
Al       9.05000000      17.15000000       5.00000000
Al       9.05000000      19.17500000       7.02500000
Al      11.07500000      17.15000000       7.02500000
Al      11.07500000      19.17500000       5.00000000
Al       9.15582999      17.06220349       9.05648882
Al      11.43185720      16.79314279      12.07591416
Al      13.45394891      14.77105118      12.96413996
Al      11.16279645      19.06917001       9.05648882
Al       9.05000000      17.15000000      15.95326439
Al       9.05000000      19.17500000      18.79348279
Al      11.07500000      17.15000000      18.79348279
Al      11.07500000      19.17500000      15.95326439
Al       9.05000000      21.20000000       5.00000000
Al       9.05000000      23.22500000       7.02500000
Al      11.07500000      21.20000000       7.02500000
Al      11.07500000      23.22500000       5.00000000
Al      10.50767324      19.74352254      11.52850499
Al      10.66646091      21.54483874      13.58630548
Al      12.60665541      19.12626713      13.73426764
Al      12.06823310      21.75424846       9.80757208
Al       9.05000000      21.20000000      15.95326439
Al       9.05000000      23.22500000      18.79348279
Al      11.07500000      21.20000000      18.79348279
Al      11.07500000      23.22500000      15.95326439
Al      13.10000000       5.00000000       5.00000000
Al      13.10000000       7.02500000       7.02500000
Al      15.12500000       5.00000000       7.02500000
Al      15.12500000       7.02500000       5.00000000
Al      13.14604150       5.55268091       9.66705334
Al      12.17369773       8.38758200      13.25976394
Al      14.30873224       6.36553525      12.75450939
Al      14.60565772       8.10585837      10.02537999
Al      13.10000000       5.00000000      15.95326439
Al      13.10000000       7.02500000      18.79348279
Al      15.12500000       5.00000000      18.79348279
Al      15.12500000       7.02500000      15.95326439
Al      13.10000000       9.05000000       5.00000000
Al      13.10000000      11.07500000       7.02500000
Al      15.12500000       9.05000000       7.02500000
Al      15.12500000      11.07500000       5.00000000
Al      13.11064954      10.37680543      11.14758198
Al      13.38271081      11.64535753      13.57029849
Al      14.96880406       9.11474813      13.74201493
Al      15.12580653      11.02568809       9.12381154
Al      13.10000000       9.05000000      15.95326439
Al      13.10000000      11.07500000      18.79348279
Al      15.12500000       9.05000000      18.79348279
Al      15.12500000      11.07500000      15.95326439
Al      13.10000000      13.10000000       5.00000000
Al      13.10000000      15.12500000       7.02500000
Al      15.12500000      13.10000000       7.02500000
Al      15.12500000      15.12500000       5.00000000
Al      13.15003773      13.07235636       9.25302639
Al      15.19239208      13.03260759      11.38156250
Al      15.15264350      15.07496220       9.25302652
Al      13.10000000      13.10000000      15.95326439
Al      13.10000000      15.12500000      18.79348279
Al      15.12500000      13.10000000      18.79348279
Al      15.12500000      15.12500000      15.95326439
Al      13.10000000      17.15000000       5.00000000
Al      13.10000000      19.17500000       7.02500000
Al      15.12500000      17.15000000       7.02500000
Al      15.12500000      19.17500000       5.00000000
Al      13.10832975      17.07138847       9.37423354
Al      14.78416764      17.21942499      13.86243323
Al      15.29680279      16.99633471      11.27627741
Al      15.13224095      19.18210591       9.04205215
Al      13.10000000      17.15000000      15.95326439
Al      13.10000000      19.17500000      18.79348279
Al      15.12500000      17.15000000      18.79348279
Al      15.12500000      19.17500000      15.95326439
Al      13.10000000      21.20000000       5.00000000
Al      13.10000000      23.22500000       7.02500000
Al      15.12500000      21.20000000       7.02500000
Al      15.12500000      23.22500000       5.00000000
Al      13.42632719      19.41300629      11.16837072
Al      13.48924490      22.03066194      13.05568575
Al      15.48491392      20.01222105      13.35313310
Al      14.91774345      21.87294956      10.35446527
Al      13.10000000      21.20000000      15.95326439
Al      13.10000000      23.22500000      18.79348279
Al      15.12500000      21.20000000      18.79348279
Al      15.12500000      23.22500000      15.95326439
Al      17.15000000       5.00000000       5.00000000
Al      17.15000000       7.02500000       7.02500000
Al      19.17500000       5.00000000       7.02500000
Al      19.17500000       7.02500000       5.00000000
Al      16.47098048       5.98517009       9.88967163
Al      17.07857418       7.45868378      12.62793836
Al      18.82615402       5.39803517      13.36853942
Al      17.23718161       8.91411445       9.13128461
Al      17.15000000       5.00000000      15.95326439
Al      17.15000000       7.02500000      18.79348279
Al      19.17500000       5.00000000      18.79348279
Al      19.17500000       7.02500000      15.95326439
Al      17.15000000       9.05000000       5.00000000
Al      17.15000000      11.07500000       7.02500000
Al      19.17500000       9.05000000       7.02500000
Al      19.17500000      11.07500000       5.00000000
Al      16.23120229      10.03617517      11.48342607
Al      16.37782498      11.84717442      13.65286460
Al      18.42501936       9.79998209      13.66477849
Al      18.18882198      11.99379720      11.48342541
Al      17.15000000       9.05000000      15.95326439
Al      17.15000000      11.07500000      18.79348279
Al      19.17500000       9.05000000      18.79348279
Al      19.17500000      11.07500000      15.95326439
Al      17.15000000      13.10000000       5.00000000
Al      17.15000000      15.12500000       7.02500000
Al      19.17500000      13.10000000       7.02500000
Al      19.17500000      15.12500000       5.00000000
Al      17.19931217      13.09919394       9.12381098
Al      16.57964272      14.84228870      13.57029858
Al      19.11025231      13.25619453      13.74201433
Al      17.84819401      15.11435047      11.14758183
Al      17.15000000      13.10000000      15.95326439
Al      17.15000000      15.12500000      18.79348279
Al      19.17500000      13.10000000      18.79348279
Al      19.17500000      15.12500000      15.95326439
Al      17.15000000      17.15000000       5.00000000
Al      17.15000000      19.17500000       7.02500000
Al      19.17500000      17.15000000       7.02500000
Al      19.17500000      19.17500000       5.00000000
Al      17.26476719      17.15115024       9.21904702
Al      17.02190820      19.49477583      11.10806250
Al      17.55714405      17.68346616      13.23133013
Al      19.21811007      19.21498270       9.05951875
Al      17.15000000      17.15000000      15.95326439
Al      17.15000000      19.17500000      18.79348279
Al      19.17500000      17.15000000      18.79348279
Al      19.17500000      19.17500000      15.95326439
Al      17.15000000      21.20000000       5.00000000
Al      17.15000000      23.22500000       7.02500000
Al      19.17500000      21.20000000       7.02500000
Al      19.17500000      23.22500000       5.00000000
Al      17.28588244      21.34275066       9.05480134
Al      16.79136253      22.51923193      12.90830173
Al      18.55374889      20.40186547      13.57217880
Al      19.22586183      21.54438631      11.07018479
Al      17.15000000      21.20000000      15.95326439
Al      17.15000000      23.22500000      18.79348279
Al      19.17500000      21.20000000      18.79348279
Al      19.17500000      23.22500000      15.95326439
Al      21.20000000       5.00000000       5.00000000
Al      21.20000000       7.02500000       7.02500000
Al      23.22500000       5.00000000       7.02500000
Al      23.22500000       7.02500000       5.00000000
Al      19.31801962       6.77233895       9.46172552
Al      19.18713304       9.03786404      11.18198684
Al      20.55854203       7.66645818      13.36390544
Al      21.45266081       8.90698107       9.46172696
Al      21.20000000       5.00000000      15.95326439
Al      21.20000000       7.02500000      18.79348279
Al      23.22500000       5.00000000      18.79348279
Al      23.22500000       7.02500000      15.95326439
Al      21.20000000       9.05000000       5.00000000
Al      21.20000000      11.07500000       7.02500000
Al      23.22500000       9.05000000       7.02500000
Al      23.22500000      11.07500000       5.00000000
Al      19.31088609      10.98781812       9.13128555
Al      20.76631542      11.14642577      12.62793089
Al      22.82696361       9.39884800      13.36853971
Al      22.23983174      11.75402071       9.88966876
Al      21.20000000       9.05000000      15.95326439
Al      21.20000000      11.07500000      18.79348279
Al      23.22500000       9.05000000      18.79348279
Al      23.22500000      11.07500000      15.95326439
Al      21.20000000      13.10000000       5.00000000
Al      21.20000000      15.12500000       7.02500000
Al      23.22500000      13.10000000       7.02500000
Al      23.22500000      15.12500000       5.00000000
Al      20.11914167      13.61934159      10.02538223
Al      19.83741808      16.05130123      13.25976351
Al      21.85946586      13.91626694      12.75451064
Al      22.67231885      15.07895840       9.66705353
Al      21.20000000      13.10000000      15.95326439
Al      21.20000000      15.12500000      18.79348279
Al      23.22500000      13.10000000      18.79348279
Al      23.22500000      15.12500000      15.95326439
Al      21.20000000      17.15000000       5.00000000
Al      21.20000000      19.17500000       7.02500000
Al      23.22500000      17.15000000       7.02500000
Al      23.22500000      19.17500000       5.00000000
Al      20.07229544      16.38236299       9.70207490
Al      21.09054990      19.09800710      13.95276387
Al      22.38710727      16.98317115      12.38678333
Al      22.17284686      18.30871017       9.59707055
Al      21.20000000      17.15000000      15.95326439
Al      21.20000000      19.17500000      18.79348279
Al      23.22500000      17.15000000      18.79348279
Al      23.22500000      19.17500000      15.95326439
Al      21.20000000      21.20000000       5.00000000
Al      21.20000000      23.22500000       7.02500000
Al      23.22500000      21.20000000       7.02500000
Al      23.22500000      23.22500000       5.00000000
Al      19.78692884      18.50643463      11.59903334
Al      20.74264725      22.33885400      13.44231076
Al      22.17647734      20.34230048      11.75594838
Al      21.25716603      21.21195799       9.14695423
Al      21.20000000      21.20000000      15.95326439
Al      21.20000000      23.22500000      18.79348279
Al      23.22500000      21.20000000      18.79348279
Al      23.22500000      23.22500000      15.95326439
