299
Lattice="28.224999999999998 0.0 0.0 0.0 28.224999999999998 0.0 0.0 0.0 20.125" Properties=species:S:1:pos:R:3:forces:R:3 energy=-16374.469955818231 pbc="T T T"
Al       5.00000000       5.00000000       5.00000000       0.42790016       0.42475951      -0.15889066
Al       5.00000000       7.02500000       7.02500000      -0.22803564       0.68019778       0.91566714
Al       7.02500000       5.00000000       7.02500000       0.73084917      -0.42988206       0.71305316
Al       7.02500000       7.02500000       5.00000000       0.32216297       0.30898965      -0.81858211
Al       6.63232295       6.51934549       9.39146143       0.04850726       0.02112980       0.01077999
Al       5.75717316       7.49990469      12.68295921       0.03633317       0.00206508       0.00206819
Al       7.68283928       5.29528423      12.56136117      -0.00081308      -0.06009708      -0.01300440
Al       8.45516820       7.69484010      11.01353416       0.05885032      -0.00967917      -0.04914703
Al       5.00000000       5.00000000      15.47079623       1.18718207       1.10653747       0.11287314
Al       5.00000000       7.02500000      18.17316658       0.35003212       0.48945723      -1.23504018
Al       7.02500000       5.00000000      18.17316658       0.48778035       0.35038820      -1.23729805
Al       7.02500000       7.02500000      15.47079623       0.51862935       0.40139292       0.34607536
Al       5.00000000       9.05000000       5.00000000      -0.13814452      -0.05551491      -0.56575470
Al       5.00000000      11.07500000       7.02500000       0.04527842       0.05358078       1.89528051
Al       7.02500000       9.05000000       7.02500000       0.33703833      -0.13295456       1.80305138
Al       7.02500000      11.07500000       5.00000000       0.33291579      -0.04789646      -0.92293639
Al       5.96570174       9.25364204       9.94539920       0.01793133       0.02194713       0.05008746
Al       5.51608556      11.26934746      12.51713693       0.02015080       0.01029939       0.00123661
Al       7.62788541       9.51277325      13.01818435      -0.00910519      -0.00456093      -0.03782091
Al       7.28815629      11.70406267       9.81806058      -0.01063235      -0.01768504      -0.00919679
Al       5.00000000       9.05000000      15.47079623       0.45671193       0.11743447       0.06633266
Al       5.00000000      11.07500000      18.17316658       0.23764260      -0.02006404      -1.14972992
Al       7.02500000       9.05000000      18.17316658       0.34523787      -0.04924398      -1.21523074
Al       7.02500000      11.07500000      15.47079623       0.32734365       0.31018281       0.34914149
Al       5.00000000      13.10000000       5.00000000      -0.18243346      -0.01024737      -0.55145609
Al       5.00000000      15.12500000       7.02500000      -0.09777054      -0.04635845       1.50987353
Al       7.02500000      13.10000000       7.02500000       0.39306401       0.13809303       2.16964859
Al       7.02500000      15.12500000       5.00000000       0.31455829       0.00257626      -0.94262273
Al       5.23868030      13.65389057       9.91986092       0.02775450      -0.02318807       0.02320720
Al       4.99034642      15.80347717      12.68566297      -0.01017856      -0.02915868       0.02341886
Al       6.86510651      13.79380490      12.85746729      -0.01433291      -0.00327587      -0.00431621
Al       7.99419862      14.60509072      10.07677531       0.01415086       0.01238812       0.00516700
Al       5.00000000      13.10000000      15.47079623       0.27154094       0.09282447      -0.04659897
Al       5.00000000      15.12500000      18.17316658       0.23283544       0.00925556      -1.17171394
Al       7.02500000      13.10000000      18.17316658       0.34464789       0.00080312      -1.20216667
Al       7.02500000      15.12500000      15.47079623       0.38767169       0.37116400       0.34594694
Al       5.00000000      17.15000000       5.00000000      -0.18309580       0.00302804      -0.54870886
Al       5.00000000      19.17500000       7.02500000      -0.02753759      -0.28747828       1.47726039
Al       7.02500000      17.15000000       7.02500000       0.30977563       0.08072921       1.54502129
Al       7.02500000      19.17500000       5.00000000       0.30840456       0.03946757      -0.94060655
Al       5.80691675      16.65909671       9.71972659       0.03512407       0.00802736       0.00803819
Al       5.62651650      18.83978749      12.78661729      -0.00579717       0.00546726       0.00806393
Al       7.66490793      16.85305036      12.31516507      -0.01643837       0.02415192       0.03640670
Al       7.19896031      19.11378130      10.10476478      -0.01317235      -0.03178484       0.02784017
Al       5.00000000      17.15000000      15.47079623       0.32453788       0.04994330       0.35351824
Al       5.00000000      19.17500000      18.17316658       0.24822568       0.03921106      -1.17355935
Al       7.02500000      17.15000000      18.17316658       0.35281484       0.02288765      -1.20243589
Al       7.02500000      19.17500000      15.47079623       0.26226606       0.01161334       0.65914918
Al       5.00000000      21.20000000       5.00000000      -0.10172715      -0.43046264      -0.35202806
Al       5.00000000      23.22500000       7.02500000       0.52522487      -0.52522487       1.04533100
Al       7.02500000      21.20000000       7.02500000       0.56585741      -0.56585741       1.70871208
Al       7.02500000      23.22500000       5.00000000       0.43046264       0.10172715      -0.35202806
Al       5.22352196      20.95620765       9.45115511       0.01165404      -0.01862864       0.01656446
Al       6.69405301      21.53094699      12.38461891       0.00772425      -0.00772425       0.04376368
Al       8.70535060      19.51964940      13.01525222      -0.00290123       0.00290123       0.03544109
Al       7.26879235      23.00147804       9.45115511       0.01862864      -0.01165404       0.01656446
Al       5.00000000      21.20000000      15.47079623       0.55182717      -0.72069803       0.24303244
Al       5.00000000      23.22500000      18.17316658       0.88509622      -0.88509622      -0.98085765
Al       7.02500000      21.20000000      18.17316658       0.34782199      -0.34782199      -1.25365845
Al       7.02500000      23.22500000      15.47079623       0.72069803      -0.55182717       0.24303244
Al       9.05000000       5.00000000       5.00000000      -0.03219978      -0.15471959      -0.46492092
Al       9.05000000       7.02500000       7.02500000      -0.08397349       0.60618682       2.04059360
Al      11.07500000       5.00000000       7.02500000       0.18683451      -0.06962591       1.36438605
Al      11.07500000       7.02500000       5.00000000      -0.01799396       0.31665259      -0.90084437
Al       9.39014192       5.36458636       9.51968111       0.01862361      -0.00049412       0.01071620
Al       9.41022509       7.29675046      13.42892430       0.03175789      -0.02625136       0.01070429
Al      11.13633968       5.44822213      12.18593850      -0.01673300       0.04086388      -0.03444090
Al      11.18009957       7.63447268       9.79976163       0.01504583      -0.03588984      -0.05264306
Al       9.05000000       5.00000000      15.47079623       0.06713893       0.19884680       0.23102341
Al       9.05000000       7.02500000      18.17316658      -0.04257968       0.34768024      -1.24427003
Al      11.07500000       5.00000000      18.17316658      -0.02010379       0.24573145      -1.13818803
Al      11.07500000       7.02500000      15.47079623       0.76488991       0.09689956       1.67113775
Al       9.05000000       9.05000000       5.00000000      -0.03782035      -0.04991292      -0.90751292
Al       9.05000000      11.07500000       7.02500000      -0.00990538       0.71886999       0.96824776
Al      11.07500000       9.05000000       7.02500000       0.14240908      -0.08942986       1.56042726
Al      11.07500000      11.07500000       5.00000000      -0.01515058      -0.04770842      -0.94407233
Al       9.08633556       9.55324011       9.25585609      -0.00016393      -0.02785163       0.04193879
Al       8.83952437      11.96208214      12.55468602       0.03574168      -0.00973024       0.00680021
Al      10.57761435       9.75727177      12.19828069       0.00206917       0.00002449      -0.01275599
Al      11.96189339      10.48024976       9.63581061      -0.03642646       0.00384314      -0.02526595
Al       9.05000000       9.05000000      15.47079623       0.19381552       0.66876699       1.49824861
Al       9.05000000      11.07500000      18.17316658      -0.05704188      -0.01855265      -1.13654220
Al      11.07500000       9.05000000      18.17316658      -0.02563964      -0.06424368      -1.14682344
Al      11.07500000      11.07500000      15.47079623      -0.07863618      -0.12057188      -0.39415368
Al       9.05000000      13.10000000       5.00000000      -0.03585192      -0.03103589      -1.00255035
Al       9.05000000      15.12500000       7.02500000       0.00358904      -0.24856487       2.07866814
Al      11.07500000      13.10000000       7.02500000       0.09241697       0.00592382       1.86422799
Al      11.07500000      15.12500000       5.00000000      -0.01024938      -0.00417539      -0.98243835
Al      10.00062735      12.48833376       9.75869954       0.01063063      -0.00814772       0.00417774
Al       9.58696695      14.92548395      12.89099078       0.03983565      -0.00582715      -0.00137808
Al      11.56079967      12.88751003      12.53673871       0.00182897       0.00534933      -0.00686272
Al      10.97599143      15.23061017       9.85477563       0.00783896      -0.00188533      -0.01537137
Al       9.05000000      13.10000000      15.47079623      -0.06945215       0.00603695       0.17442629
Al       9.05000000      15.12500000      18.17316658      -0.04515141       0.01363148      -1.16133573
Al      11.07500000      13.10000000      18.17316658      -0.02572383       0.00918590      -1.14109503
Al      11.07500000      15.12500000      15.47079623       0.13745675      -0.02867886       0.55855737
Al       9.05000000      17.15000000       5.00000000      -0.03200158       0.01173376      -0.90973486
Al       9.05000000      19.17500000       7.02500000      -0.34091945       0.34091945       1.82185113
Al      11.07500000      17.15000000       7.02500000       0.18843148      -0.18843148       1.87491147
Al      11.07500000      19.17500000       5.00000000      -0.01173376       0.03200158      -0.90973486
Al       8.99611104      17.18537425       9.29868344      -0.00721837      -0.00741125      -0.00665908
Al      10.57462776      17.65037224      11.89750978      -0.00661723       0.00661723       0.01403101
Al      12.54711070      15.67788930      12.75497441       0.01326622      -0.01326622      -0.00824257
Al      11.03962575      19.22888896       9.29868344       0.00741125       0.00721837      -0.00665908
Al       9.05000000      17.15000000      15.47079623      -0.04100360       0.01539694      -0.25427129
Al       9.05000000      19.17500000      18.17316658      -0.04649805       0.04649805      -1.17479091
Al      11.07500000      17.15000000      18.17316658      -0.02142117       0.02142117      -1.15466069
Al      11.07500000      19.17500000      15.47079623      -0.01539694       0.04100360      -0.25427129
Al       9.05000000      21.20000000       5.00000000      -0.03946757      -0.30840456      -0.94060655
Al       9.05000000      23.22500000       7.02500000       0.28747828       0.02753759       1.47726039
Al      11.07500000      21.20000000       7.02500000      -0.08072921      -0.30977563       1.54502129
Al      11.07500000      23.22500000       5.00000000      -0.00302804       0.18309580      -0.54870886
Al       9.11121870      21.02603969      10.10476478       0.03178484       0.01317235       0.02784017
Al       9.38521251      22.59848350      12.78661729      -0.00546726       0.00579717       0.00806393
Al      11.37194964      20.56009207      12.31516507      -0.02415192       0.01643837       0.03640670
Al      11.56590329      22.41808325       9.71972659      -0.00802736      -0.03512407       0.00803819
Al       9.05000000      21.20000000      15.47079623      -0.01161334      -0.26226606       0.65914918
Al       9.05000000      23.22500000      18.17316658      -0.03921106      -0.24822568      -1.17355935
Al      11.07500000      21.20000000      18.17316658      -0.02288765      -0.35281484      -1.20243589
Al      11.07500000      23.22500000      15.47079623      -0.04994330      -0.32453788       0.35351824
Al      13.10000000       5.00000000       5.00000000      -0.00118999      -0.15378265      -0.48595359
Al      13.10000000       7.02500000       7.02500000       0.01535296       0.63832946       1.97374525
Al      15.12500000       5.00000000       7.02500000       0.06577251      -0.35071261       1.44817808
Al      15.12500000       7.02500000       5.00000000       0.01770863       0.30854879      -0.86555836
Al      13.03165539       5.48977090       9.61181869      -0.01507584       0.00288593      -0.02781950
Al      12.52158470       7.81705256      12.97161389      -0.00928281       0.01228489      -0.02568546
Al      14.65950771       5.95396986      12.39281778       0.01545933       0.00243116      -0.01846316
Al      15.64066547       6.82229275       9.36459444      -0.01274306       0.01235196      -0.03912664
Al      13.10000000       5.00000000      15.47079623      -0.13262016       0.49344672      -0.09851713
Al      13.10000000       7.02500000      18.17316658      -0.00646812       0.34001344      -1.19751370
Al      15.12500000       5.00000000      18.17316658       0.00608951       0.24115757      -1.12368564
Al      15.12500000       7.02500000      15.47079623      -0.04533689       0.30232619       0.30987146
Al      13.10000000       9.05000000       5.00000000      -0.00572146      -0.05548329      -0.99267767
Al      13.10000000      11.07500000       7.02500000       0.07941515       0.09171519       1.47949440
Al      15.12500000       9.05000000       7.02500000      -0.02801444      -0.07797905       2.40533715
Al      15.12500000      11.07500000       5.00000000       0.00712548      -0.02077450      -0.96046828
Al      13.88433587       8.57431953      10.48041451      -0.00742048       0.00177269      -0.00164421
Al      13.43677778      10.82265927      12.62872694       0.00741670      -0.01904995      -0.00970026
Al      15.41865962       8.91174960      13.10098992      -0.00817467       0.01645604      -0.00356024
Al      14.96802912      11.19746571       9.54755380      -0.02763540      -0.00765761      -0.00983631
Al      13.10000000       9.05000000      15.47079623       0.11109807       0.28685576       0.74796930
Al      13.10000000      11.07500000      18.17316658      -0.00947037      -0.02090239      -1.13438685
Al      15.12500000       9.05000000      18.17316658       0.00833392      -0.06176594      -1.16532773
Al      15.12500000      11.07500000      15.47079623       0.07748560       0.04919238      -0.00969012
Al      13.10000000      13.10000000       5.00000000       0.01009264      -0.02324136      -0.95431342
Al      13.10000000      15.12500000       7.02500000      -0.11272310       0.11272310       2.15904423
Al      15.12500000      13.10000000       7.02500000      -0.11109449       0.11109449       1.89273419
Al      15.12500000      15.12500000       5.00000000       0.02324136      -0.01009264      -0.95431342
Al      12.98105306      13.22764145       9.62611191       0.00918980      -0.00632369       0.00449787
Al      14.58410551      13.64089449      12.43539751       0.00065890      -0.00065890       0.00452979
Al      14.99735855      15.24394694       9.62611191       0.00632369      -0.00918980       0.00449787
Al      13.10000000      13.10000000      15.47079623      -0.00139012       0.04850173      -0.12893005
Al      13.10000000      15.12500000      18.17316658      -0.01972016       0.01972016      -1.15331720
Al      15.12500000      13.10000000      18.17316658      -0.00047848       0.00047848      -1.13089553
Al      15.12500000      15.12500000      15.47079623      -0.04850173       0.00139012      -0.12893005
Al      13.10000000      17.15000000       5.00000000       0.00417539       0.01024938      -0.98243835
Al      13.10000000      19.17500000       7.02500000       0.24856487      -0.00358904       2.07866814
Al      15.12500000      17.15000000       7.02500000      -0.00592382      -0.09241697       1.86422799
Al      15.12500000      19.17500000       5.00000000       0.03103589       0.03585192      -1.00255035
Al      12.99438983      17.24900857       9.85477563       0.00188533      -0.00783896      -0.01537137
Al      13.29951605      18.63803305      12.89099078       0.00582715      -0.03983565      -0.00137808
Al      15.33748997      16.66420033      12.53673871      -0.00534933      -0.00182897      -0.00686272
Al      15.73666624      18.22437265       9.75869954       0.00814772      -0.01063063       0.00417774
Al      13.10000000      17.15000000      15.47079623       0.02867886      -0.13745675       0.55855737
Al      13.10000000      19.17500000      18.17316658      -0.01363148       0.04515141      -1.16133573
Al      15.12500000      17.15000000      18.17316658      -0.00918590       0.02572383      -1.14109503
Al      15.12500000      19.17500000      15.47079623      -0.00603695       0.06945215       0.17442629
Al      13.10000000      21.20000000       5.00000000      -0.00257626      -0.31455829      -0.94262273
Al      13.10000000      23.22500000       7.02500000       0.04635845       0.09777054       1.50987353
Al      15.12500000      21.20000000       7.02500000      -0.13809303      -0.39306401       2.16964859
Al      15.12500000      23.22500000       5.00000000       0.01024737       0.18243346      -0.55145609
Al      13.61990928      20.23080138      10.07677530      -0.01238812      -0.01415086       0.00516700
Al      12.42152283      23.23465358      12.68566297       0.02915868       0.01017856       0.02341886
Al      14.43119510      21.35989349      12.85746729       0.00327587       0.01433291      -0.00431621
Al      14.57110943      22.98631970       9.91986092       0.02318807      -0.02775450       0.02320720
Al      13.10000000      21.20000000      15.47079623      -0.37116400      -0.38767169       0.34594694
Al      13.10000000      23.22500000      18.17316658      -0.00925556      -0.23283544      -1.17171394
Al      15.12500000      21.20000000      18.17316658      -0.00080312      -0.34464789      -1.20216667
Al      15.12500000      23.22500000      15.47079623      -0.09282447      -0.27154094      -0.04659897
Al      17.15000000       5.00000000       5.00000000       0.02058849      -0.14576001      -0.49276282
Al      17.15000000       7.02500000       7.02500000       0.15878309       0.25566716       0.70571580
Al      19.17500000       5.00000000       7.02500000      -0.08857185      -0.08769580       1.67920967
Al      19.17500000       7.02500000       5.00000000       0.04264721       0.34025195      -0.82728223
Al      17.66403574       4.94224683      10.04964964      -0.03532756       0.00018631      -0.04140646
Al      17.37056518       7.10040737      12.22767216      -0.00103627       0.01730228      -0.00517887
Al      19.35012052       5.27565829      12.92617137       0.01226345      -0.01210895      -0.00817781
Al      18.82266051       7.39207094       9.29540988       0.03670834       0.00030560      -0.01597895
Al      17.15000000       5.00000000      15.47079623       0.04384293       0.39012305      -0.06340904
Al      17.15000000       7.02500000      18.17316658       0.02377776       0.34088897      -1.18604723
Al      19.17500000       5.00000000      18.17316658       0.04996600       0.23766020      -1.17896556
Al      19.17500000       7.02500000      15.47079623       0.09064507       0.59639035      -0.04662647
Al      17.15000000       9.05000000       5.00000000       0.03065741      -0.07918702      -0.97603146
Al      17.15000000      11.07500000       7.02500000       0.13813412      -0.13813412       2.38545251
Al      19.17500000       9.05000000       7.02500000      -0.39925734       0.39925734       0.93441848
Al      19.17500000      11.07500000       5.00000000       0.07918702      -0.03065741      -0.97603146
Al      16.94185183       9.29048378      10.17877185      -0.00303808      -0.00483253      -0.01074416
Al      16.59909371      11.62590629      12.41124629      -0.01167226       0.01167226      -0.01778774
Al      18.57600117       9.64899883      13.02496663      -0.02009726       0.02009726      -0.02018136
Al      18.93451622      11.28314817      10.17877185       0.00483253       0.00303808      -0.01074416
Al      17.15000000       9.05000000      15.47079623      -0.00593368      -0.14398865       1.00990142
Al      17.15000000      11.07500000      18.17316658       0.03010078      -0.03010078      -1.14964260
Al      19.17500000       9.05000000      18.17316658       0.05452827      -0.05452827      -1.15140966
Al      19.17500000      11.07500000      15.47079623       0.14398865       0.00593368       1.00990142
Al      17.15000000      13.10000000       5.00000000       0.02077450      -0.00712548      -0.96046828
Al      17.15000000      15.12500000       7.02500000      -0.09171519      -0.07941515       1.47949440
Al      19.17500000      13.10000000       7.02500000       0.07797905       0.02801444       2.40533715
Al      19.17500000      15.12500000       5.00000000       0.05548329       0.00572146      -0.99267767
Al      17.02753429      13.25697088       9.54755380       0.00765761       0.02763540      -0.00983631
Al      17.40234073      14.78822222      12.62872694       0.01904995      -0.00741670      -0.00970026
Al      19.31325040      12.80634038      13.10098992      -0.01645604       0.00817467      -0.00356024
Al      19.65068047      14.34066413      10.48041451      -0.00177269       0.00742048      -0.00164421
Al      17.15000000      13.10000000      15.47079623      -0.04919238      -0.07748560      -0.00969012
Al      17.15000000      15.12500000      18.17316658       0.02090239       0.00947037      -1.13438685
Al      19.17500000      13.10000000      18.17316658       0.06176594      -0.00833392      -1.16532773
Al      19.17500000      15.12500000      15.47079623      -0.28685576      -0.11109807       0.74796930
Al      17.15000000      17.15000000       5.00000000       0.04770842       0.01515058      -0.94407233
Al      17.15000000      19.17500000       7.02500000      -0.71886999       0.00990538       0.96824776
Al      19.17500000      17.15000000       7.02500000       0.08942986      -0.14240908       1.56042726
Al      19.17500000      19.17500000       5.00000000       0.04991292       0.03782035      -0.90751292
Al      17.74475024      16.26310661       9.63581061      -0.00384314       0.03642646      -0.02526595
Al      16.26291786      19.38547563      12.55468602       0.00973024      -0.03574168       0.00680021
Al      18.46772823      17.64738565      12.19828069      -0.00002449      -0.00206917      -0.01275599
Al      18.67175989      19.13866444       9.25585609       0.02785163       0.00016393       0.04193879
Al      17.15000000      17.15000000      15.47079623       0.12057188       0.07863618      -0.39415368
Al      17.15000000      19.17500000      18.17316658       0.01855265       0.05704188      -1.13654220
Al      19.17500000      17.15000000      18.17316658       0.06424368       0.02563964      -1.14682344
Al      19.17500000      19.17500000      15.47079623      -0.66876699      -0.19381552       1.49824861
Al      17.15000000      21.20000000       5.00000000       0.04789646      -0.33291579      -0.92293639
Al      17.15000000      23.22500000       7.02500000      -0.05358078      -0.04527842       1.89528051
Al      19.17500000      21.20000000       7.02500000       0.13295456      -0.33703833       1.80305138
Al      19.17500000      23.22500000       5.00000000       0.05551491       0.13814452      -0.56575470
Al      16.52093733      20.93684371       9.81806058       0.01768504       0.01063235      -0.00919679
Al      16.95565254      22.70891444      12.51713693      -0.01029939      -0.02015080       0.00123661
Al      18.71222675      20.59711459      13.01818435       0.00456093       0.00910519      -0.03782091
Al      18.97135796      22.25929826       9.94539920      -0.02194713      -0.01793133       0.05008746
Al      17.15000000      21.20000000      15.47079623      -0.31018281      -0.32734365       0.34914149
Al      17.15000000      23.22500000      18.17316658       0.02006404      -0.23764260      -1.14972992
Al      19.17500000      21.20000000      18.17316658       0.04924398      -0.34523787      -1.21523074
Al      19.17500000      23.22500000      15.47079623      -0.11743447      -0.45671193       0.06633266
Al      21.20000000       5.00000000       5.00000000      -0.45686483      -0.05236612      -0.42094813
Al      21.20000000       7.02500000       7.02500000      -0.42201219       0.42201219       1.93917698
Al      23.22500000       5.00000000       7.02500000      -0.66040536       0.66040536       1.20144035
Al      23.22500000       7.02500000       5.00000000       0.05236612       0.45686483      -0.42094813
Al      20.76167754       5.42488175       9.79800548       0.00122733       0.00842538      -0.01243587
Al      20.30688134       7.91811866      11.74099735       0.00370331      -0.00370331       0.02992697
Al      22.15735856       6.06764144      12.74606736       0.00037559      -0.00037559       0.00019745
Al      22.80011825       7.46332246       9.79800548      -0.00842538      -0.00122733      -0.01243587
Al      21.20000000       5.00000000      15.47079623      -0.49832827       0.29396176       0.63272539
Al      21.20000000       7.02500000      18.17316658      -0.33621610       0.33621610      -1.24050444
Al      23.22500000       5.00000000      18.17316658      -0.88142984       0.88142984      -1.01176003
Al      23.22500000       7.02500000      15.47079623      -0.29396176       0.49832827       0.63272539
Al      21.20000000       9.05000000       5.00000000      -0.34025195      -0.04264721      -0.82728223
Al      21.20000000      11.07500000       7.02500000      -0.25566716      -0.15878309       0.70571580
Al      23.22500000       9.05000000       7.02500000       0.08769580       0.08857185       1.67920967
Al      23.22500000      11.07500000       5.00000000       0.14576001      -0.02058849      -0.49276282
Al      20.83292906       9.40233949       9.29540988      -0.00030560      -0.03670834      -0.01597895
Al      21.12459263      10.85443482      12.22767216      -0.01730228       0.00103627      -0.00517887
Al      22.94934171       8.87487948      12.92617137       0.01210895      -0.01226345      -0.00817781
Al      23.28275317      10.56096426      10.04964964      -0.00018631       0.03532756      -0.04140646
Al      21.20000000       9.05000000      15.47079623      -0.59639035      -0.09064507      -0.04662647
Al      21.20000000      11.07500000      18.17316658      -0.34088897      -0.02377776      -1.18604723
Al      23.22500000       9.05000000      18.17316658      -0.23766020      -0.04996600      -1.17896556
Al      23.22500000      11.07500000      15.47079623      -0.39012305      -0.04384293      -0.06340904
Al      21.20000000      13.10000000       5.00000000      -0.30854879      -0.01770863      -0.86555836
Al      21.20000000      15.12500000       7.02500000      -0.63832946      -0.01535296       1.97374525
Al      23.22500000      13.10000000       7.02500000       0.35071261      -0.06577251       1.44817808
Al      23.22500000      15.12500000       5.00000000       0.15378265       0.00118999      -0.48595359
Al      21.40270725      12.58433453       9.36459444      -0.01235196       0.01274306      -0.03912664
Al      20.40794744      15.70341530      12.97161389      -0.01228489       0.00928281      -0.02568546
Al      22.27103014      13.56549229      12.39281778      -0.00243116      -0.01545933      -0.01846316
Al      22.73522910      15.19334461       9.61181869      -0.00288593       0.01507584      -0.02781950
Al      21.20000000      13.10000000      15.47079623      -0.30232619       0.04533689       0.30987146
Al      21.20000000      15.12500000      18.17316658      -0.34001344       0.00646812      -1.19751370
Al      23.22500000      13.10000000      18.17316658      -0.24115757      -0.00608951      -1.12368564
Al      23.22500000      15.12500000      15.47079623      -0.49344672       0.13262016      -0.09851713
Al      21.20000000      17.15000000       5.00000000      -0.31665259       0.01799396      -0.90084437
Al      21.20000000      19.17500000       7.02500000      -0.60618682       0.08397349       2.04059360
Al      23.22500000      17.15000000       7.02500000       0.06962591      -0.18683451       1.36438605
Al      23.22500000      19.17500000       5.00000000       0.15471959       0.03219978      -0.46492092
Al      20.59052732      17.04490043       9.79976163       0.03588984      -0.01504583      -0.05264306
Al      20.92824954      18.81477491      13.42892430       0.02625136      -0.03175789       0.01070429
Al      22.77677787      17.08866032      12.18593850      -0.04086388       0.01673300      -0.03444090
Al      22.86041364      18.83485808       9.51968111       0.00049412      -0.01862361       0.01071620
Al      21.20000000      17.15000000      15.47079623      -0.09689956      -0.76488991       1.67113775