299
Lattice="28.224999999999998 0.0 0.0 0.0 28.224999999999998 0.0 0.0 0.0 20.125" Properties=species:S:1:pos:R:3 energy=-16451.08675861403 pbc="T T T"
Al       5.00000000       5.00000000       5.00000000
Al       5.00000000       7.02500000       7.02500000
Al       7.02500000       5.00000000       7.02500000
Al       7.02500000       7.02500000       5.00000000
Al       5.23625635       5.24186245       9.43160910
Al       5.11367993       7.17780592      11.74936579
Al       7.14737234       5.04422591      11.75743728
Al       7.20005156       7.19517281       9.37705410
Al       5.00000000       5.00000000      14.07873613
Al       5.00000000       7.02500000      16.38337502
Al       7.02500000       5.00000000      16.38337502
Al       7.02500000       7.02500000      14.07873613
Al       5.00000000       9.05000000       5.00000000
Al       5.00000000      11.07500000       7.02500000
Al       7.02500000       9.05000000       7.02500000
Al       7.02500000      11.07500000       5.00000000
Al       5.00146709       9.05293124       9.34810457
Al       4.96881128      11.05018708      11.72132727
Al       7.16054832       9.17280391      11.72822510
Al       7.06926806      11.08155335       9.36331468
Al       5.00000000       9.05000000      14.07873613
Al       5.00000000      11.07500000      16.38337502
Al       7.02500000       9.05000000      16.38337502
Al       7.02500000      11.07500000      14.07873613
Al       5.00000000      13.10000000       5.00000000
Al       5.00000000      15.12500000       7.02500000
Al       7.02500000      13.10000000       7.02500000
Al       7.02500000      15.12500000       5.00000000
Al       4.98651641      13.09319558       9.36282929
Al       4.99846007      15.13091398      11.72106554
Al       7.04008021      13.07535549      11.72136916
Al       7.04724469      15.13618123       9.36379220
Al       5.00000000      13.10000000      14.07873613
Al       5.00000000      15.12500000      16.38337502
Al       7.02500000      13.10000000      16.38337502
Al       7.02500000      15.12500000      14.07873613
Al       5.00000000      17.15000000       5.00000000
Al       5.00000000      19.17500000       7.02500000
Al       7.02500000      17.15000000       7.02500000
Al       7.02500000      19.17500000       5.00000000
Al       4.97600078      17.17214517       9.36431258
Al       4.97715066      19.19744279      11.73479953
Al       7.04174898      17.18211180      11.72427206
Al       7.11974088      19.10162045       9.35252773
Al       5.00000000      17.15000000      14.07873613
Al       5.00000000      19.17500000      16.38337502
Al       7.02500000      17.15000000      16.38337502
Al       7.02500000      19.17500000      14.07873613
Al       5.00000000      21.20000000       5.00000000
Al       5.00000000      23.22500000       7.02500000
Al       7.02500000      21.20000000       7.02500000
Al       7.02500000      23.22500000       5.00000000
Al       5.07696914      21.06284059       9.32309676
Al       5.28786228      22.93713772      11.65104472
Al       7.26150603      20.96349397      11.70554091
Al       7.16215941      23.14803086       9.32309676
Al       5.00000000      21.20000000      14.07873613
Al       5.00000000      23.22500000      16.38337502
Al       7.02500000      21.20000000      16.38337502
Al       7.02500000      23.22500000      14.07873613
Al       9.05000000       5.00000000       5.00000000
Al       9.05000000       7.02500000       7.02500000
Al      11.07500000       5.00000000       7.02500000
Al      11.07500000       7.02500000       5.00000000
Al       9.03922482       4.97907513       9.34950141
Al       9.09015506       7.09208361      11.73412778
Al      11.05693790       4.98549503      11.72096126
Al      11.05351568       7.05201804       9.36252366
Al       9.05000000       5.00000000      14.07873613
Al       9.05000000       7.02500000      16.38337502
Al      11.07500000       5.00000000      16.38337502
Al      11.07500000       7.02500000      14.07873613
Al       9.05000000       9.05000000       5.00000000
Al       9.05000000      11.07500000       7.02500000
Al      11.07500000       9.05000000       7.02500000
Al      11.07500000      11.07500000       5.00000000
Al       9.14630571       9.15279957       9.36148353
Al       9.19876943      11.21230667      11.73058708
Al      11.08306936       9.06840217      11.73366250
Al      11.13053520      11.12950688       9.37347495
Al       9.05000000       9.05000000      14.07873613
Al       9.05000000      11.07500000      16.38337502
Al      11.07500000       9.05000000      16.38337502
Al      11.07500000      11.07500000      14.07873613
Al       9.05000000      13.10000000       5.00000000
Al       9.05000000      15.12500000       7.02500000
Al      11.07500000      13.10000000       7.02500000
Al      11.07500000      15.12500000       5.00000000
Al       9.07238269      13.11713463       9.36828445
Al       9.02807816      15.13155924      11.72778382
Al      11.31894504      13.34396623      11.70504633
Al      11.09438647      15.11401994       9.29548659
Al       9.05000000      13.10000000      14.07873613
Al       9.05000000      15.12500000      16.38337502
Al      11.07500000      13.10000000      16.38337502
Al      11.07500000      15.12500000      14.07873613
Al       9.05000000      17.15000000       5.00000000
Al       9.05000000      19.17500000       7.02500000
Al      11.07500000      17.15000000       7.02500000
Al      11.07500000      19.17500000       5.00000000
Al       9.10394158      17.10628533       9.36156309
Al       9.26185574      18.96314426      11.72433830
Al      11.36216237      16.86283763      11.69801860
Al      11.11871467      19.12105842       9.36156309
Al       9.05000000      17.15000000      14.07873613
Al       9.05000000      19.17500000      16.38337502
Al      11.07500000      17.15000000      16.38337502
Al      11.07500000      19.17500000      14.07873613
Al       9.05000000      21.20000000       5.00000000
Al       9.05000000      23.22500000       7.02500000
Al      11.07500000      21.20000000       7.02500000
Al      11.07500000      23.22500000       5.00000000
Al       9.12337955      21.10525912       9.35252773
Al       9.02755721      23.24784934      11.73479953
Al      11.04288820      21.18325102      11.72427206
Al      11.05285483      23.24899922       9.36431258
Al       9.05000000      21.20000000      14.07873613
Al       9.05000000      23.22500000      16.38337502
Al      11.07500000      21.20000000      16.38337502
Al      11.07500000      23.22500000      14.07873613
Al      13.10000000       5.00000000       5.00000000
Al      13.10000000       7.02500000       7.02500000
Al      15.12500000       5.00000000       7.02500000
Al      15.12500000       7.02500000       5.00000000
Al      13.09393091       4.99543854       9.36351020
Al      13.08964486       7.05552511      11.72035140
Al      15.12954244       4.99737293      11.72148507
Al      15.14105749       7.04935290       9.36462260
Al      13.10000000       5.00000000      14.07873613
Al      13.10000000       7.02500000      16.38337502
Al      15.12500000       5.00000000      16.38337502
Al      15.12500000       7.02500000      14.07873613
Al      13.10000000       9.05000000       5.00000000
Al      13.10000000      11.07500000       7.02500000
Al      15.12500000       9.05000000       7.02500000
Al      15.12500000      11.07500000       5.00000000
Al      13.09590215       9.04504723       9.35755468
Al      13.11463317      11.05337325      11.72848314
Al      15.14560253       9.03553160      11.72956259
Al      15.09271091      11.10272096       9.36966193
Al      13.10000000       9.05000000      14.07873613
Al      13.10000000      11.07500000      16.38337502
Al      15.12500000       9.05000000      16.38337502
Al      15.12500000      11.07500000      14.07873613
Al      13.10000000      13.10000000       5.00000000
Al      13.10000000      15.12500000       7.02500000
Al      15.12500000      13.10000000       7.02500000
Al      15.12500000      15.12500000       5.00000000
Al      13.10728474      13.12468812       9.30213118
Al      14.86857065      13.35642935      11.70596109
Al      15.10031188      15.11771526       9.30213118
Al      13.10000000      13.10000000      14.07873613
Al      13.10000000      15.12500000      16.38337502
Al      15.12500000      13.10000000      16.38337502
Al      15.12500000      15.12500000      14.07873613
Al      13.10000000      17.15000000       5.00000000
Al      13.10000000      19.17500000       7.02500000
Al      15.12500000      17.15000000       7.02500000
Al      15.12500000      19.17500000       5.00000000
Al      13.11098006      17.13061353       9.29548659
Al      13.09344076      19.19692184      11.72778382
Al      14.88103377      16.90605496      11.70504633
Al      15.10786537      19.15261731       9.36828445
Al      13.10000000      17.15000000      14.07873613
Al      13.10000000      19.17500000      16.38337502
Al      15.12500000      17.15000000      16.38337502
Al      15.12500000      19.17500000      14.07873613
Al      13.10000000      21.20000000       5.00000000
Al      13.10000000      23.22500000       7.02500000
Al      15.12500000      21.20000000       7.02500000
Al      15.12500000      23.22500000       5.00000000
Al      13.08881877      21.17775531       9.36379220
Al      13.09408602      23.22653993      11.72106554
Al      15.14964451      21.18491979      11.72136916
Al      15.13180442      23.23848359       9.36282929
Al      13.10000000      21.20000000      14.07873613
Al      13.10000000      23.22500000      16.38337502
Al      15.12500000      21.20000000      16.38337502
Al      15.12500000      23.22500000      14.07873613
Al      17.15000000       5.00000000       5.00000000
Al      17.15000000       7.02500000       7.02500000
Al      19.17500000       5.00000000       7.02500000
Al      19.17500000       7.02500000       5.00000000
Al      17.17104616       4.97520676       9.36397972
Al      17.17719857       7.04303335      11.72395232
Al      19.19290014       4.97938430      11.73464205
Al      19.10814092       7.11285611       9.35304341
Al      17.15000000       5.00000000      14.07873613
Al      17.15000000       7.02500000      16.38337502
Al      19.17500000       5.00000000      16.38337502
Al      19.17500000       7.02500000      14.07873613
Al      17.15000000       9.05000000       5.00000000
Al      17.15000000      11.07500000       7.02500000
Al      19.17500000       9.05000000       7.02500000
Al      19.17500000      11.07500000       5.00000000
Al      17.11124694       9.10180679       9.35803318
Al      16.99537382      11.22962618      11.72641032
Al      19.02706581       9.19793419      11.72642969
Al      19.12319321      11.11375306       9.35803318
Al      17.15000000       9.05000000      14.07873613
Al      17.15000000      11.07500000      16.38337502
Al      19.17500000       9.05000000      16.38337502
Al      19.17500000      11.07500000      14.07873613
Al      17.15000000      13.10000000       5.00000000
Al      17.15000000      15.12500000       7.02500000
Al      19.17500000      13.10000000       7.02500000
Al      19.17500000      15.12500000       5.00000000
Al      17.12227904      13.13228909       9.36966193
Al      17.17162675      15.11036683      11.72848314
Al      19.18946840      13.07939747      11.72956259
Al      19.17995277      15.12909785       9.35755468
Al      17.15000000      13.10000000      14.07873613
Al      17.15000000      15.12500000      16.38337502
Al      19.17500000      13.10000000      16.38337502
Al      19.17500000      15.12500000      14.07873613
Al      17.15000000      17.15000000       5.00000000
Al      17.15000000      19.17500000       7.02500000
Al      19.17500000      17.15000000       7.02500000
Al      19.17500000      19.17500000       5.00000000
Al      17.09549312      17.09446480       9.37347495
Al      17.01269333      19.02623057      11.73058708
Al      19.15659783      17.14193064      11.73366250
Al      19.07220043      19.07869429       9.36148353
Al      17.15000000      17.15000000      14.07873613
Al      17.15000000      19.17500000      16.38337502
Al      19.17500000      17.15000000      16.38337502
Al      19.17500000      19.17500000      14.07873613
Al      17.15000000      21.20000000       5.00000000
Al      17.15000000      23.22500000       7.02500000
Al      19.17500000      21.20000000       7.02500000
Al      19.17500000      23.22500000       5.00000000
Al      17.14344665      21.15573194       9.36331468
Al      17.17481292      23.25618872      11.72132727
Al      19.05219609      21.06445168      11.72822510
Al      19.17206876      23.22353291       9.34810457
Al      17.15000000      21.20000000      14.07873613
Al      17.15000000      23.22500000      16.38337502
Al      19.17500000      21.20000000      16.38337502
Al      19.17500000      23.22500000      14.07873613
Al      21.20000000       5.00000000       5.00000000
Al      21.20000000       7.02500000       7.02500000
Al      23.22500000       5.00000000       7.02500000
Al      23.22500000       7.02500000       5.00000000
Al      21.06962856       5.07001655       9.32581072
Al      20.99977856       7.22522144      11.70814583
Al      22.96298624       5.26201376      11.65378637
Al      23.15498345       7.15537144       9.32581072
Al      21.20000000       5.00000000      14.07873613
Al      21.20000000       7.02500000      16.38337502
Al      23.22500000       5.00000000      16.38337502
Al      23.22500000       7.02500000      14.07873613
Al      21.20000000       9.05000000       5.00000000
Al      21.20000000      11.07500000       7.02500000
Al      23.22500000       9.05000000       7.02500000
Al      23.22500000      11.07500000       5.00000000
Al      21.11214389       9.11685908       9.35304341
Al      21.18196665      11.04780143      11.72395232
Al      23.24561570       9.03209986      11.73464205
Al      23.24979324      11.05395384       9.36397972
Al      21.20000000       9.05000000      14.07873613
Al      21.20000000      11.07500000      16.38337502
Al      23.22500000       9.05000000      16.38337502
Al      23.22500000      11.07500000      14.07873613
Al      21.20000000      13.10000000       5.00000000
Al      21.20000000      15.12500000       7.02500000
Al      23.22500000      13.10000000       7.02500000
Al      23.22500000      15.12500000       5.00000000
Al      21.17564710      13.08394251       9.36462260
Al      21.16947489      15.13535514      11.72035140
Al      23.22762707      13.09545756      11.72148507
Al      23.22956146      15.13106909       9.36351020
Al      21.20000000      13.10000000      14.07873613
Al      21.20000000      15.12500000      16.38337502
Al      23.22500000      13.10000000      16.38337502
Al      23.22500000      15.12500000      14.07873613
Al      21.20000000      17.15000000       5.00000000
Al      21.20000000      19.17500000       7.02500000
Al      23.22500000      17.15000000       7.02500000
Al      23.22500000      19.17500000       5.00000000
Al      21.17298196      17.17148432       9.36252366
Al      21.13291639      19.13484494      11.73412778
Al      23.23950497      17.16806210      11.72096126
Al      23.24592487      19.18577518       9.34950141
Al      21.20000000      17.15000000      14.07873613
Al      21.20000000      19.17500000      16.38337502
Al      23.22500000      17.15000000      16.38337502
Al      23.22500000      19.17500000      14.07873613
Al      21.20000000      21.20000000       5.00000000
Al      21.20000000      23.22500000       7.02500000
Al      23.22500000      21.20000000       7.02500000
Al      23.22500000      23.22500000       5.00000000
Al      21.02982719      21.02494844       9.37705410
Al      21.04719408      23.11132007      11.74936579
Al      23.18077409      21.07762766      11.75743728
Al      22.98313755      22.98874365       9.43160910
Al      21.20000000      21.20000000      14.07873613
Al      21.20000000      23.22500000      16.38337502
Al      23.22500000      21.20000000      16.38337502
Al      23.22500000      23.22500000      14.07873613
