299
Lattice="28.224999999999998 0.0 0.0 0.0 28.224999999999998 0.0 0.0 0.0 20.125" Properties=species:S:1:pos:R:3 energy=-16363.10823979375 pbc="T T T"
Al       5.00000000       5.00000000       5.00000000
Al       5.00000000       7.02500000       7.02500000
Al       7.02500000       5.00000000       7.02500000
Al       7.02500000       7.02500000       5.00000000
Al       6.63594738       6.52095748       9.45582708
Al       5.75911182       7.50081668      12.81845847
Al       7.68550209       5.29394180      12.69236682
Al       8.45820674       7.69445752      11.11651698
Al       5.00000000       5.00000000      15.66090798
Al       5.00000000       7.02500000      18.41759597
Al       7.02500000       5.00000000      18.41759597
Al       7.02500000       7.02500000      15.66090798
Al       5.00000000       9.05000000       5.00000000
Al       5.00000000      11.07500000       7.02500000
Al       7.02500000       9.05000000       7.02500000
Al       7.02500000      11.07500000       5.00000000
Al       5.96793917       9.25392583      10.02617291
Al       5.51794795      11.27039807      12.64803656
Al       7.62996082       9.51249384      13.16004374
Al       7.28888259      11.70475014       9.89440371
Al       5.00000000       9.05000000      15.66090798
Al       5.00000000      11.07500000      18.41759597
Al       7.02500000       9.05000000      18.41759597
Al       7.02500000      11.07500000      15.66090798
Al       5.00000000      13.10000000       5.00000000
Al       5.00000000      15.12500000       7.02500000
Al       7.02500000      13.10000000       7.02500000
Al       7.02500000      15.12500000       5.00000000
Al       5.23997148      13.65440349       9.99874077
Al       4.99037744      15.80408013      12.82042978
Al       6.86578409      13.79467871      12.99585144
Al       7.99598003      14.60571680      10.16121519
Al       5.00000000      13.10000000      15.66090798
Al       5.00000000      15.12500000      18.41759597
Al       7.02500000      13.10000000      18.41759597
Al       7.02500000      15.12500000      15.66090798
Al       5.00000000      17.15000000       5.00000000
Al       5.00000000      19.17500000       7.02500000
Al       7.02500000      17.15000000       7.02500000
Al       7.02500000      19.17500000       5.00000000
Al       5.80871178      16.65869014       9.79252075
Al       5.62658108      18.83970983      12.92440799
Al       7.66509295      16.85331878      12.44064855
Al       7.19936479      19.11268145      10.19117863
Al       5.00000000      17.15000000      15.66090798
Al       5.00000000      19.17500000      18.41759597
Al       7.02500000      17.15000000      18.41759597
Al       7.02500000      19.17500000      15.66090798
Al       5.00000000      21.20000000       5.00000000
Al       5.00000000      23.22500000       7.02500000
Al       7.02500000      21.20000000       7.02500000
Al       7.02500000      23.22500000       5.00000000
Al       5.22651225      20.95470177       9.51626635
Al       6.69460759      21.53039241      12.51286977
Al       8.70526035      19.51973965      13.15862598
Al       7.27029823      22.99848776       9.51626635
Al       5.00000000      21.20000000      15.66090798
Al       5.00000000      23.22500000      18.41759597
Al       7.02500000      21.20000000      18.41759597
Al       7.02500000      23.22500000      15.66090798
Al       9.05000000       5.00000000       5.00000000
Al       9.05000000       7.02500000       7.02500000
Al      11.07500000       5.00000000       7.02500000
Al      11.07500000       7.02500000       5.00000000
Al       9.39161232       5.36474838       9.58841776
Al       9.41149691       7.29659489      13.57936612
Al      11.13525910       5.45088550      12.30701868
Al      11.18125355       7.63476153       9.87337896
Al       9.05000000       5.00000000      15.66090798
Al       9.05000000       7.02500000      18.41759597
Al      11.07500000       5.00000000      18.41759597
Al      11.07500000       7.02500000      15.66090798
Al       9.05000000       9.05000000       5.00000000
Al       9.05000000      11.07500000       7.02500000
Al      11.07500000       9.05000000       7.02500000
Al      11.07500000      11.07500000       5.00000000
Al       9.08537844       9.55233616       9.31854656
Al       8.84138530      11.96260557      12.68477982
Al      10.57847099       9.75750459      12.31934672
Al      11.96110731      10.48022068       9.70582340
Al       9.05000000       9.05000000      15.66090798
Al       9.05000000      11.07500000      18.41759597
Al      11.07500000       9.05000000      18.41759597
Al      11.07500000      11.07500000      15.66090798
Al       9.05000000      13.10000000       5.00000000
Al       9.05000000      15.12500000       7.02500000
Al      11.07500000      13.10000000       7.02500000
Al      11.07500000      15.12500000       5.00000000
Al      10.00144166      12.48886899       9.83395181
Al       9.58943671      14.92562277      13.03076188
Al      11.56198239      12.88749297      12.66669559
Al      10.97604904      15.23095906       9.93226465
Al       9.05000000      13.10000000      15.66090798
Al       9.05000000      15.12500000      18.41759597
Al      11.07500000      13.10000000      18.41759597
Al      11.07500000      15.12500000      15.66090798
Al       9.05000000      17.15000000       5.00000000
Al       9.05000000      19.17500000       7.02500000
Al      11.07500000      17.15000000       7.02500000
Al      11.07500000      19.17500000       5.00000000
Al       8.99558086      17.18579312       9.36092447
Al      10.57434039      17.65065961      12.01268241
Al      12.54731482      15.67768518      12.89152269
Al      11.03920688      19.22941914       9.36092447
Al       9.05000000      17.15000000      15.66090798
Al       9.05000000      19.17500000      18.41759597
Al      11.07500000      17.15000000      18.41759597
Al      11.07500000      19.17500000      15.66090798
Al       9.05000000      21.20000000       5.00000000
Al       9.05000000      23.22500000       7.02500000
Al      11.07500000      21.20000000       7.02500000
Al      11.07500000      23.22500000       5.00000000
Al       9.11231855      21.02563521      10.19117863
Al       9.38529017      22.59841892      12.92440799
Al      11.37168122      20.55990705      12.44064855
Al      11.56630986      22.41628822       9.79252075
Al       9.05000000      21.20000000      15.66090798
Al       9.05000000      23.22500000      18.41759597
Al      11.07500000      21.20000000      18.41759597
Al      11.07500000      23.22500000      15.66090798
Al      13.10000000       5.00000000       5.00000000
Al      13.10000000       7.02500000       7.02500000
Al      15.12500000       5.00000000       7.02500000
Al      15.12500000       7.02500000       5.00000000
Al      13.03144739       5.49044639       9.68232462
Al      12.52161823       7.81882675      13.11322246
Al      14.65960580       5.95512840      12.51996697
Al      15.64050996       6.82360331       9.42697107
Al      13.10000000       5.00000000      15.66090798
Al      13.10000000       7.02500000      18.41759597
Al      15.12500000       5.00000000      18.41759597
Al      15.12500000       7.02500000      15.66090798
Al      13.10000000       9.05000000       5.00000000
Al      13.10000000      11.07500000       7.02500000
Al      15.12500000       9.05000000       7.02500000
Al      15.12500000      11.07500000       5.00000000
Al      13.88416752       8.57418174      10.57547318
Al      13.43735175      10.82229516      12.76153694
Al      15.41902950       8.91210855      13.24544527
Al      14.96699609      11.19771513       9.61630175
Al      13.10000000       9.05000000      15.66090798
Al      13.10000000      11.07500000      18.41759597
Al      15.12500000       9.05000000      18.41759597
Al      15.12500000      11.07500000      15.66090798
Al      13.10000000      13.10000000       5.00000000
Al      13.10000000      15.12500000       7.02500000
Al      15.12500000      13.10000000       7.02500000
Al      15.12500000      15.12500000       5.00000000
Al      12.98124340      13.22794298       9.69838122
Al      14.58336765      13.64163235      12.56445444
Al      14.99705702      15.24375660       9.69838122
Al      13.10000000      13.10000000      15.66090798
Al      13.10000000      15.12500000      18.41759597
Al      15.12500000      13.10000000      18.41759597
Al      15.12500000      15.12500000      15.66090798
Al      13.10000000      17.15000000       5.00000000
Al      13.10000000      19.17500000       7.02500000
Al      15.12500000      17.15000000       7.02500000
Al      15.12500000      19.17500000       5.00000000
Al      12.99404094      17.24895096       9.93226465
Al      13.29937723      18.63556329      13.03076188
Al      15.33750703      16.66301761      12.66669559
Al      15.73613101      18.22355834       9.83395181
Al      13.10000000      17.15000000      15.66090798
Al      13.10000000      19.17500000      18.41759597
Al      15.12500000      17.15000000      18.41759597
Al      15.12500000      19.17500000      15.66090798
Al      13.10000000      21.20000000       5.00000000
Al      13.10000000      23.22500000       7.02500000
Al      15.12500000      21.20000000       7.02500000
Al      15.12500000      23.22500000       5.00000000
Al      13.61928320      20.22901997      10.16121519
Al      12.42091987      23.23462256      12.82042978
Al      14.43032129      21.35921591      12.99585144
Al      14.57059651      22.98502852       9.99874077
Al      13.10000000      21.20000000      15.66090798
Al      13.10000000      23.22500000      18.41759597
Al      15.12500000      21.20000000      18.41759597
Al      15.12500000      23.22500000      15.66090798
Al      17.15000000       5.00000000       5.00000000
Al      17.15000000       7.02500000       7.02500000
Al      19.17500000       5.00000000       7.02500000
Al      19.17500000       7.02500000       5.00000000
Al      17.66365155       4.94362406      10.13054598
Al      17.37031108       7.10170673      12.34980877
Al      19.35008530       5.27740689      13.06647813
Al      18.82242974       7.39360235       9.35869459
Al      17.15000000       5.00000000      15.66090798
Al      17.15000000       7.02500000      18.41759597
Al      19.17500000       5.00000000      18.41759597
Al      19.17500000       7.02500000      15.66090798
Al      17.15000000       9.05000000       5.00000000
Al      17.15000000      11.07500000       7.02500000
Al      19.17500000       9.05000000       7.02500000
Al      19.17500000      11.07500000       5.00000000
Al      16.94080283       9.29038628      10.26584558
Al      16.59795506      11.62704494      12.53811132
Al      18.57452324       9.65047676      13.16811950
Al      18.93461372      11.28419717      10.26584558
Al      17.15000000       9.05000000      15.66090798
Al      17.15000000      11.07500000      18.41759597
Al      19.17500000       9.05000000      18.41759597
Al      19.17500000      11.07500000      15.66090798
Al      17.15000000      13.10000000       5.00000000
Al      17.15000000      15.12500000       7.02500000
Al      19.17500000      13.10000000       7.02500000
Al      19.17500000      15.12500000       5.00000000
Al      17.02728487      13.25800391       9.61630175
Al      17.40270484      14.78764825      12.76153694
Al      19.31289145      12.80597050      13.24544527
Al      19.65081826      14.34083248      10.57547318
Al      17.15000000      13.10000000      15.66090798
Al      17.15000000      15.12500000      18.41759597
Al      19.17500000      13.10000000      18.41759597
Al      19.17500000      15.12500000      15.66090798
Al      17.15000000      17.15000000       5.00000000
Al      17.15000000      19.17500000       7.02500000
Al      19.17500000      17.15000000       7.02500000
Al      19.17500000      19.17500000       5.00000000
Al      17.74477932      16.26389269       9.70582340
Al      16.26239443      19.38361470      12.68477982
Al      18.46749541      17.64652901      12.31934672
Al      18.67266384      19.13962156       9.31854656
Al      17.15000000      17.15000000      15.66090798
Al      17.15000000      19.17500000      18.41759597
Al      19.17500000      17.15000000      18.41759597
Al      19.17500000      19.17500000      15.66090798
Al      17.15000000      21.20000000       5.00000000
Al      17.15000000      23.22500000       7.02500000
Al      19.17500000      21.20000000       7.02500000
Al      19.17500000      23.22500000       5.00000000
Al      16.52024986      20.93611741       9.89440371
Al      16.95460193      22.70705205      12.64803656
Al      18.71250616      20.59503918      13.16004374
Al      18.97107417      22.25706083      10.02617291
Al      17.15000000      21.20000000      15.66090798
Al      17.15000000      23.22500000      18.41759597
Al      19.17500000      21.20000000      18.41759597
Al      19.17500000      23.22500000      15.66090798
Al      21.20000000       5.00000000       5.00000000
Al      21.20000000       7.02500000       7.02500000
Al      23.22500000       5.00000000       7.02500000
Al      23.22500000       7.02500000       5.00000000
Al      20.76037751       5.42591903       9.87423717
Al      20.30599545       7.91900455      11.85410135
Al      22.15680314       6.06819686      12.88341149
Al      22.79908097       7.46462249       9.87423717
Al      21.20000000       5.00000000      15.66090798
Al      21.20000000       7.02500000      18.41759597
Al      23.22500000       5.00000000      18.41759597
Al      23.22500000       7.02500000      15.66090798
Al      21.20000000       9.05000000       5.00000000
Al      21.20000000      11.07500000       7.02500000
Al      23.22500000       9.05000000       7.02500000
Al      23.22500000      11.07500000       5.00000000
Al      20.83139765       9.40257026       9.35869459
Al      21.12329327      10.85468892      12.34980877
Al      22.94759311       8.87491470      13.06647813
Al      23.28137594      10.56134845      10.13054598
Al      21.20000000       9.05000000      15.66090798
Al      21.20000000      11.07500000      18.41759597
Al      23.22500000       9.05000000      18.41759597
Al      23.22500000      11.07500000      15.66090798
Al      21.20000000      13.10000000       5.00000000
Al      21.20000000      15.12500000       7.02500000
Al      23.22500000      13.10000000       7.02500000
Al      23.22500000      15.12500000       5.00000000
Al      21.40139669      12.58449004       9.42697107
Al      20.40617325      15.70338177      13.11322246
Al      22.26987160      13.56539420      12.51996697
Al      22.73455361      15.19355261       9.68232462
Al      21.20000000      13.10000000      15.66090798
Al      21.20000000      15.12500000      18.41759597
Al      23.22500000      13.10000000      18.41759597
Al      23.22500000      15.12500000      15.66090798
Al      21.20000000      17.15000000       5.00000000
Al      21.20000000      19.17500000       7.02500000
Al      23.22500000      17.15000000       7.02500000
Al      23.22500000      19.17500000       5.00000000
Al      20.59023847      17.04374645       9.87337896
Al      20.92840511      18.81350309      13.57936612
Al      22.77411450      17.08974090      12.30701868
Al      22.86025162      18.83338768       9.58841776
Al      21.20000000      17.15000000      15.66090798
Al      21.20000000      19.17500000      18.41759597
Al      23.22500000      17.15000000      18.41759597
Al      23.22500000      19.17500000      15.66090798
Al      21.20000000      21.20000000       5.00000000
Al      21.20000000      23.22500000       7.02500000
Al      23.22500000      21.20000000       7.02500000
Al      23.22500000      23.22500000       5.00000000
Al      20.53054248      19.76679326      11.11651698
Al      20.72418332      22.46588818      12.81845847
Al      22.93105820      20.53949791      12.69236682
Al      21.70404252      21.58905262       9.45582708
Al      21.20000000      21.20000000      15.66090798
Al      21.20000000      23.22500000      18.41759597
Al      23.22500000      21.20000000      18.41759597
Al      23.22500000      23.22500000      15.66090798
