299
Lattice="28.224999999999998 0.0 0.0 0.0 28.224999999999998 0.0 0.0 0.0 20.125" Properties=species:S:1:pos:R:3:forces:R:3 energy=-16454.34908155379 pbc="T T T"
Al       5.00000000       5.00000000       5.00000000       0.34970983       0.35010434       0.17097816
Al       5.00000000       7.02500000       7.02500000      -0.17812002       0.45011004       1.07573558
Al       7.02500000       5.00000000       7.02500000       0.43393630      -0.17846656       1.07146628
Al       7.02500000       7.02500000       5.00000000       0.32807352       0.32870817      -0.67497868
Al       5.23625635       5.24186245       9.39775654      -0.02251766      -0.01503921       0.01239516
Al       5.11367993       7.17780592      11.69256513      -0.00820749       0.00561619       0.00340117
Al       7.14737234       5.04422591      11.70055671       0.00048690      -0.01124612       0.00309838
Al       7.20005156       7.19517281       9.34374168       0.02636184       0.02362664      -0.00818596
Al       5.00000000       5.00000000      13.99887240       0.64219755       0.67580878      -0.48732039
Al       5.00000000       7.02500000      16.28069309       0.17608976       0.47177984      -0.69004696
Al       7.02500000       5.00000000      16.28069309       0.47138978       0.17420339      -0.69447255
Al       7.02500000       7.02500000      13.99887240       0.41339930       0.40893742      -0.15865565
Al       5.00000000       9.05000000       5.00000000      -0.18351907      -0.03324227      -0.29027464
Al       5.00000000      11.07500000       7.02500000      -0.31868105      -0.00415101       1.16346640
Al       7.02500000       9.05000000       7.02500000       0.34454421       0.06242591       1.28617715
Al       7.02500000      11.07500000       5.00000000       0.33371836      -0.01200143      -0.72877029
Al       5.00146709       9.05293124       9.31507878      -0.00961590       0.00318915      -0.00125538
Al       4.96881128      11.05018708      11.66480422      -0.01223123       0.00317075       0.00174181
Al       7.16054832       9.17280391      11.67163376       0.02339359       0.01677725       0.01695081
Al       7.06926806      11.08155335       9.33013830       0.00650699       0.00099642      -0.01477298
Al       5.00000000       9.05000000      13.99887240      -0.01604063       0.09296621      -0.15028239
Al       5.00000000      11.07500000      16.28069309       0.06788887      -0.01497306      -0.59310140
Al       7.02500000       9.05000000      16.28069309       0.34130211      -0.03728465      -0.39712107
Al       7.02500000      11.07500000      13.99887240       0.33637045       0.04801255      -0.23972529
Al       5.00000000      13.10000000       5.00000000      -0.18659774      -0.00376246      -0.29372080
Al       5.00000000      15.12500000       7.02500000      -0.33411961       0.01780284       1.19675788
Al       7.02500000      13.10000000       7.02500000       0.30032286       0.00838392       1.38268507
Al       7.02500000      15.12500000       5.00000000       0.33493093       0.00397329      -0.72819167
Al       4.98651641      13.09319558       9.32965772      -0.01615621       0.00242421       0.00064357
Al       4.99846007      15.13091398      11.66454508      -0.01211589      -0.00146686       0.00257089
Al       7.04008021      13.07535549      11.66484570       0.01146787      -0.00221114       0.01953208
Al       7.04724469      15.13618123       9.33061109       0.00634156       0.00169336      -0.01388089
Al       5.00000000      13.10000000      13.99887240      -0.08375019      -0.01638963      -0.32039273
Al       5.00000000      15.12500000      16.28069309       0.06862632       0.00431384      -0.59155953
Al       7.02500000      13.10000000      16.28069309       0.34289566      -0.00369533      -0.39614141
Al       7.02500000      15.12500000      13.99887240       0.27359914       0.00830388      -0.26837259
Al       5.00000000      17.15000000       5.00000000      -0.18676796       0.01503131      -0.29235983
Al       5.00000000      19.17500000       7.02500000      -0.28991655      -0.10700041       0.99551338
Al       7.02500000      17.15000000       7.02500000       0.30035514      -0.03138389       1.33610641
Al       7.02500000      19.17500000       5.00000000       0.33271192       0.03588745      -0.72256328
Al       4.97600078      17.17214517       9.33112632      -0.01287778      -0.00291712       0.00165662
Al       4.97715066      19.19744279      11.67814310      -0.00711519      -0.00362952       0.00199776
Al       7.04174898      17.18211180      11.66771986       0.00869888       0.00521879       0.01741208
Al       7.11974088      19.10162045       9.31945815       0.01196169      -0.00669753      -0.01356124
Al       5.00000000      17.15000000      13.99887240      -0.08154135       0.02182079      -0.29785067
Al       5.00000000      19.17500000      16.28069309       0.07134988       0.03535829      -0.59553960
Al       7.02500000      17.15000000      16.28069309       0.34318336       0.01315898      -0.39609167
Al       7.02500000      19.17500000      13.99887240       0.36908918      -0.07237288      -0.17384287
Al       5.00000000      21.20000000       5.00000000      -0.08412979      -0.45586067      -0.19119399
Al       5.00000000      23.22500000       7.02500000       0.33734527      -0.33734527       1.08004295
Al       7.02500000      21.20000000       7.02500000       0.41519841      -0.41519841       1.22895384
Al       7.02500000      23.22500000       5.00000000       0.45586067       0.08412979      -0.19119399
Al       5.07696914      21.06284059       9.29031858      -0.01200068      -0.00096401      -0.00665391
Al       5.28786228      22.93713772      11.59521755      -0.01509400       0.01509400      -0.00360883
Al       7.26150603      20.96349397      11.64917417       0.04206911      -0.04206911       0.01195962
Al       7.16215941      23.14803086       9.29031858       0.00096401       0.01200068      -0.00665391
Al       5.00000000      21.20000000      13.99887240       0.09988751      -0.46446290      -0.17129371
Al       5.00000000      23.22500000      16.28069309       0.65004299      -0.65004299      -0.75932420
Al       7.02500000      21.20000000      16.28069309       0.33624687      -0.33624687      -0.44290469
Al       7.02500000      23.22500000      13.99887240       0.46446290      -0.09988751      -0.17129371
Al       9.05000000       5.00000000       5.00000000      -0.03415967      -0.18439207      -0.28949167
Al       9.05000000       7.02500000       7.02500000       0.04796924       0.33097081       1.28332952
Al      11.07500000       5.00000000       7.02500000      -0.01430811      -0.32917640       1.16794818
Al      11.07500000       7.02500000       5.00000000      -0.01290453       0.33399007      -0.72862920
Al       9.03922482       4.97907513       9.31646179       0.00361796      -0.00695806      -0.00045461
Al       9.09015506       7.09208361      11.67747800       0.00205541       0.01212245       0.01594159
Al      11.05693790       4.98549503      11.66444184       0.00440663      -0.00942031       0.00126669
Al      11.05351568       7.05201804       9.32935511      -0.00442976       0.00657727      -0.01364063
Al       9.05000000       5.00000000      13.99887240       0.08705461      -0.04778488      -0.13701123
Al       9.05000000       7.02500000      16.28069309      -0.03743676       0.34129479      -0.39915749
Al      11.07500000       5.00000000      16.28069309      -0.01532784       0.06837708      -0.59239309
Al      11.07500000       7.02500000      13.99887240       0.00797236       0.28344708      -0.22758955
Al       9.05000000       9.05000000       5.00000000      -0.03557075      -0.03441974      -0.78669320
Al       9.05000000      11.07500000       7.02500000       0.03641107       0.06770326       1.30816212
Al      11.07500000       9.05000000       7.02500000       0.03800343       0.02247532       1.30500900
Al      11.07500000      11.07500000       5.00000000      -0.01127037      -0.00955783      -0.78640376
Al       9.14630571       9.15279957       9.32832527       0.01064021       0.01048484      -0.01546516
Al       9.19876943      11.21230667      11.67397235       0.02105863       0.01898526       0.02320459
Al      11.08306936       9.06840217      11.67701732       0.00387203       0.00836830       0.02430616
Al      11.13053520      11.12950688       9.34019797       0.01004129       0.01134586      -0.01524597
Al       9.05000000       9.05000000      13.99887240       0.05043744       0.07287869      -0.16294524
Al       9.05000000      11.07500000      16.28069309      -0.03786320      -0.01330302      -0.33761962
Al      11.07500000       9.05000000      16.28069309      -0.01415658      -0.03760755      -0.34071388
Al      11.07500000      11.07500000      13.99887240       0.10052597       0.11513108      -0.25416389
Al       9.05000000      13.10000000       5.00000000      -0.03360615      -0.00094097      -0.78712711
Al       9.05000000      15.12500000       7.02500000      -0.06159562      -0.01480371       1.24936158
Al      11.07500000      13.10000000       7.02500000      -0.05613141      -0.04947166       1.18156083
Al      11.07500000      15.12500000       5.00000000      -0.00891786       0.00407006      -0.76752241
Al       9.07238269      13.11713463       9.33505887       0.00959419       0.00307894      -0.01401834
Al       9.02807816      15.13155924      11.67119685       0.01098739      -0.00117618       0.02223287
Al      11.31894504      13.34396623      11.64868449       0.00806434       0.00149749       0.01330927
Al      11.09438647      15.11401994       9.26298178       0.00471010      -0.00265930      -0.02234068
Al       9.05000000      13.10000000      13.99887240       0.08974541       0.09823977      -0.26598432
Al       9.05000000      15.12500000      16.28069309      -0.03660824       0.00448534      -0.33959679
Al      11.07500000      13.10000000      16.28069309      -0.01451490      -0.00380131      -0.33178422
Al      11.07500000      15.12500000      13.99887240       0.00489090      -0.00946433       0.10222052
Al       9.05000000      17.15000000       5.00000000      -0.03355681       0.01118644      -0.78431819
Al       9.05000000      19.17500000       7.02500000       0.06269393      -0.06269393       1.25405820
Al      11.07500000      17.15000000       7.02500000      -0.03329781       0.03329781       1.16589598
Al      11.07500000      19.17500000       5.00000000      -0.01118644       0.03355681      -0.78431819
Al       9.10394158      17.10628533       9.32840405       0.01194107      -0.00681540      -0.01642307
Al       9.26185574      18.96314426      11.66778544       0.03038610      -0.03038610       0.01988435
Al      11.36216237      16.86283763      11.64172634       0.01260207      -0.01260207       0.01124940
Al      11.11871467      19.12105842       9.32840405       0.00681540      -0.01194107      -0.01642307
Al       9.05000000      17.15000000      13.99887240       0.09960887      -0.12079546      -0.21068660
Al       9.05000000      19.17500000      16.28069309      -0.03639014       0.03639014      -0.33751886
Al      11.07500000      17.15000000      16.28069309      -0.01420897       0.01420897      -0.33139123
Al      11.07500000      19.17500000      13.99887240       0.12079546      -0.09960887      -0.21068660
Al       9.05000000      21.20000000       5.00000000      -0.03588745      -0.33271192      -0.72256328
Al       9.05000000      23.22500000       7.02500000       0.10700041       0.28991655       0.99551338
Al      11.07500000      21.20000000       7.02500000       0.03138389      -0.30035514       1.33610641
Al      11.07500000      23.22500000       5.00000000      -0.01503131       0.18676796      -0.29235983
Al       9.12337955      21.10525912       9.31945815       0.00669753      -0.01196169      -0.01356124
Al       9.02755721      23.24784934      11.67814310       0.00362952       0.00711519       0.00199776
Al      11.04288820      21.18325102      11.66771986      -0.00521879      -0.00869888       0.01741208
Al      11.05285483      23.24899922       9.33112632       0.00291712       0.01287778       0.00165662
Al       9.05000000      21.20000000      13.99887240       0.07237288      -0.36908918      -0.17384287
Al       9.05000000      23.22500000      16.28069309      -0.03535829      -0.07134988      -0.59553960
Al      11.07500000      21.20000000      16.28069309      -0.01315898      -0.34318336      -0.39609167
Al      11.07500000      23.22500000      13.99887240      -0.02182079       0.08154135      -0.29785067
Al      13.10000000       5.00000000       5.00000000      -0.00412121      -0.18718563      -0.29487412
Al      13.10000000       7.02500000       7.02500000      -0.00784239       0.27936101       1.37207388
Al      15.12500000       5.00000000       7.02500000       0.01597710      -0.33406718       1.19826907
Al      15.12500000       7.02500000       5.00000000       0.00365477       0.33424563      -0.72899119
Al      13.09393091       4.99543854       9.33033188       0.00160329      -0.01537855       0.00031965
Al      13.08964486       7.05552511      11.66383802      -0.00055234       0.01166739       0.01892679
Al      15.12954244       4.99737293      11.66496047      -0.00218673      -0.01298838       0.00211429
Al      15.14105749       7.04935290       9.33143326       0.00230789       0.00740541      -0.01469080
Al      13.10000000       5.00000000      13.99887240      -0.01456753      -0.07284604      -0.32453719
Al      13.10000000       7.02500000      16.28069309      -0.00442821       0.34218497      -0.39583594
Al      15.12500000       5.00000000      16.28069309       0.00430112       0.06807621      -0.59159702
Al      15.12500000       7.02500000      13.99887240       0.01252006       0.27869397      -0.26254112
Al      13.10000000       9.05000000       5.00000000      -0.00366958      -0.03477420      -0.78881686
Al      13.10000000      11.07500000       7.02500000       0.00263647      -0.04881280       1.26641963
Al      15.12500000       9.05000000       7.02500000      -0.02240907       0.00511715       1.32888736
Al      15.12500000      11.07500000       5.00000000       0.00140550      -0.00978794      -0.78660058
Al      13.09590215       9.04504723       9.32443533       0.00126361       0.00392383      -0.01642459
Al      13.11463317      11.05337325      11.67188925       0.00472252       0.01007881       0.02295777
Al      15.14560253       9.03553160      11.67295801       0.00119151       0.00600790       0.02362921
Al      15.09271091      11.10272096       9.33642270      -0.00433030       0.00950913      -0.01474026
Al      13.10000000       9.05000000      13.99887240       0.01262320      -0.03537742      -0.20832260
Al      13.10000000      11.07500000      16.28069309      -0.00470628      -0.01231081      -0.34111378
Al      15.12500000       9.05000000      16.28069309       0.00388141      -0.03785857      -0.33972067
Al      15.12500000      11.07500000      13.99887240      -0.09201804       0.09656375      -0.25783240
Al      13.10000000      13.10000000       5.00000000      -0.00393223       0.00145140      -0.76724809
Al      13.10000000      15.12500000       7.02500000      -0.00596097       0.00596097       0.97274776
Al      15.12500000      13.10000000       7.02500000       0.05206956      -0.05206956       1.18592581
Al      15.12500000      15.12500000       5.00000000      -0.00145140       0.00393223      -0.76724809
Al      13.10728474      13.12468812       9.26956058       0.00177780       0.00354954      -0.01593748
Al      14.86857065      13.35642935      11.64959018      -0.01004778       0.01004778       0.01224402
Al      15.10031188      15.11771526       9.26956058      -0.00354954      -0.00177780      -0.01593748
Al      13.10000000      13.10000000      13.99887240      -0.01693830       0.02886952       0.07959385
Al      13.10000000      15.12500000      16.28069309      -0.00484251       0.00484251      -0.28346051
Al      15.12500000      13.10000000      16.28069309       0.00383655      -0.00383655      -0.33308285
Al      15.12500000      15.12500000      13.99887240      -0.02886952       0.01693830       0.07959385
Al      13.10000000      17.15000000       5.00000000      -0.00407006       0.00891786      -0.76752241
Al      13.10000000      19.17500000       7.02500000       0.01480371       0.06159562       1.24936158
Al      15.12500000      17.15000000       7.02500000       0.04947166       0.05613141       1.18156083
Al      15.12500000      19.17500000       5.00000000       0.00094097       0.03360615      -0.78712711
Al      13.11098006      17.13061353       9.26298178       0.00265930      -0.00471010      -0.02234068
Al      13.09344076      19.19692184      11.67119685       0.00117618      -0.01098739       0.02223287
Al      14.88103377      16.90605496      11.64868449      -0.00149749      -0.00806434       0.01330927
Al      15.10786537      19.15261731       9.33505887      -0.00307894      -0.00959419      -0.01401834
Al      13.10000000      17.15000000      13.99887240       0.00946433      -0.00489090       0.10222052
Al      13.10000000      19.17500000      16.28069309      -0.00448534       0.03660824      -0.33959679
Al      15.12500000      17.15000000      16.28069309       0.00380131       0.01451490      -0.33178422
Al      15.12500000      19.17500000      13.99887240      -0.09823977      -0.08974541      -0.26598432
Al      13.10000000      21.20000000       5.00000000      -0.00397329      -0.33493093      -0.72819167
Al      13.10000000      23.22500000       7.02500000      -0.01780284       0.33411961       1.19675788
Al      15.12500000      21.20000000       7.02500000      -0.00838392      -0.30032286       1.38268507
Al      15.12500000      23.22500000       5.00000000       0.00376246       0.18659774      -0.29372080
Al      13.08881877      21.17775531       9.33061109      -0.00169336      -0.00634156      -0.01388089
Al      13.09408602      23.22653993      11.66454508       0.00146686       0.01211589       0.00257089
Al      15.14964451      21.18491979      11.66484570       0.00221114      -0.01146787       0.01953208
Al      15.13180442      23.23848359       9.32965772      -0.00242421       0.01615621       0.00064357
Al      13.10000000      21.20000000      13.99887240      -0.00830388      -0.27359914      -0.26837259
Al      13.10000000      23.22500000      16.28069309      -0.00431384      -0.06862632      -0.59155953
Al      15.12500000      21.20000000      16.28069309       0.00369533      -0.34289566      -0.39614141
Al      15.12500000      23.22500000      13.99887240       0.01638963       0.08375019      -0.32039273
Al      17.15000000       5.00000000       5.00000000       0.01522563      -0.18790077      -0.29271945
Al      17.15000000       7.02500000       7.02500000      -0.02129562       0.29464514       1.33486603
Al      19.17500000       5.00000000       7.02500000      -0.09747931      -0.29323949       1.00497423
Al      19.17500000       7.02500000       5.00000000       0.03631764       0.33199466      -0.72304319
Al      17.17104616       4.97520676       9.33079675      -0.00285796      -0.01444647       0.00079577
Al      17.17719857       7.04303335      11.66740328       0.00447693       0.00624456       0.01819978
Al      19.19290014       4.97938430      11.67798718      -0.00278044      -0.00809522       0.00265052
Al      19.10814092       7.11285611       9.31996872      -0.00604960       0.01162922      -0.01416215
Al      17.15000000       5.00000000      13.99887240       0.01833861      -0.07952262      -0.29552970
Al      17.15000000       7.02500000      16.28069309       0.01350634       0.34204829      -0.39614075
Al      19.17500000       5.00000000      16.28069309       0.03533794       0.07119152      -0.59551457
Al      19.17500000       7.02500000      13.99887240      -0.05274579       0.34860008      -0.18007660
Al      17.15000000       9.05000000       5.00000000       0.01279789      -0.03563856      -0.78763846
Al      17.15000000      11.07500000       7.02500000      -0.04799058       0.04799058       1.32758373
Al      19.17500000       9.05000000       7.02500000      -0.04684697       0.04684697       1.25402234
Al      19.17500000      11.07500000       5.00000000       0.03563856      -0.01279789      -0.78763846
Al      17.11124694       9.10180679       9.32490909      -0.00757838       0.00868862      -0.01913567
Al      16.99537382      11.22962618      11.66983695      -0.02611011       0.02611011       0.02271764
Al      19.02706581       9.19793419      11.66985613      -0.02248832       0.02248832       0.02220766
Al      19.12319321      11.11375306       9.32490909      -0.00868862       0.00757838      -0.01913567
Al      17.15000000       9.05000000      13.99887240      -0.05905225       0.04513534      -0.19185232
Al      17.15000000      11.07500000      16.28069309       0.01370224      -0.01370224      -0.33790880
Al      19.17500000       9.05000000      16.28069309       0.03726622      -0.03726622      -0.33909957
Al      19.17500000      11.07500000      13.99887240      -0.04513534       0.05905225      -0.19185232
Al      17.15000000      13.10000000       5.00000000       0.00978794      -0.00140550      -0.78660058
Al      17.15000000      15.12500000       7.02500000       0.04881280      -0.00263647       1.26641963
Al      19.17500000      13.10000000       7.02500000      -0.00511715       0.02240907       1.32888736
Al      19.17500000      15.12500000       5.00000000       0.03477420       0.00366958      -0.78881686
Al      17.12227904      13.13228909       9.33642270      -0.00950913       0.00433030      -0.01474026
Al      17.17162675      15.11036683      11.67188925      -0.01007881      -0.00472252       0.02295777
Al      19.18946840      13.07939747      11.67295801      -0.00600790      -0.00119151       0.02362921
Al      19.17995277      15.12909785       9.32443533      -0.00392383      -0.00126361      -0.01642459
Al      17.15000000      13.10000000      13.99887240      -0.09656375       0.09201804      -0.25783240
Al      17.15000000      15.12500000      16.28069309       0.01231081       0.00470628      -0.34111378
Al      19.17500000      13.10000000      16.28069309       0.03785857      -0.00388141      -0.33972067
Al      19.17500000      15.12500000      13.99887240       0.03537742      -0.01262320      -0.20832260
Al      17.15000000      17.15000000       5.00000000       0.00955783       0.01127037      -0.78640376
Al      17.15000000      19.17500000       7.02500000      -0.06770326      -0.03641107       1.30816212
Al      19.17500000      17.15000000       7.02500000      -0.02247532      -0.03800343       1.30500900
Al      19.17500000      19.17500000       5.00000000       0.03441974       0.03557075      -0.78669320
Al      17.09549312      17.09446480       9.34019797      -0.01134586      -0.01004129      -0.01524597
Al      17.01269333      19.02623057      11.67397235      -0.01898526      -0.02105863       0.02320459
Al      19.15659783      17.14193064      11.67701732      -0.00836830      -0.00387203       0.02430616
Al      19.07220043      19.07869429       9.32832527      -0.01048484      -0.01064021      -0.01546516
Al      17.15000000      17.15000000      13.99887240      -0.11513108      -0.10052597      -0.25416389
Al      17.15000000      19.17500000      16.28069309       0.01330302       0.03786320      -0.33761962
Al      19.17500000      17.15000000      16.28069309       0.03760755       0.01415658      -0.34071388
Al      19.17500000      19.17500000      13.99887240      -0.07287869      -0.05043744      -0.16294524
Al      17.15000000      21.20000000       5.00000000       0.01200143      -0.33371836      -0.72877029
Al      17.15000000      23.22500000       7.02500000       0.00415101       0.31868105       1.16346640
Al      19.17500000      21.20000000       7.02500000      -0.06242591      -0.34454421       1.28617715
Al      19.17500000      23.22500000       5.00000000       0.03324227       0.18351907      -0.29027464
Al      17.14344665      21.15573194       9.33013830      -0.00099642      -0.00650699      -0.01477298
Al      17.17481292      23.25618872      11.66480422      -0.00317075       0.01223123       0.00174181
Al      19.05219609      21.06445168      11.67163376      -0.01677725      -0.02339359       0.01695081
Al      19.17206876      23.22353291       9.31507878      -0.00318915       0.00961590      -0.00125538
Al      17.15000000      21.20000000      13.99887240      -0.04801255      -0.33637045      -0.23972529
Al      17.15000000      23.22500000      16.28069309       0.01497306      -0.06788887      -0.59310140
Al      19.17500000      21.20000000      16.28069309       0.03728465      -0.34130211      -0.39712107
Al      19.17500000      23.22500000      13.99887240      -0.09296621       0.01604063      -0.15028239
Al      21.20000000       5.00000000       5.00000000      -0.45527040      -0.08515683      -0.19158732
Al      21.20000000       7.02500000       7.02500000      -0.40406018       0.40406018       1.24205975
Al      23.22500000       5.00000000       7.02500000      -0.33253529       0.33253529       1.07585467
Al      23.22500000       7.02500000       5.00000000       0.08515683       0.45527040      -0.19158732
Al      21.06962856       5.07001655       9.29300566      -0.00149746      -0.01105527      -0.00619927
Al      20.99977856       7.22522144      11.65175330      -0.03540631       0.03540631       0.01257289
Al      22.96298624       5.26201376      11.59793205       0.01450817      -0.01450817      -0.00387707
Al      23.15498345       7.15537144       9.29300566       0.01105527       0.00149746      -0.00619927
Al      21.20000000       5.00000000      13.99887240      -0.45341988       0.08924182      -0.18551123
Al      21.20000000       7.02500000      16.28069309      -0.33607971       0.33607971      -0.44402501
Al      23.22500000       5.00000000      16.28069309      -0.64901707       0.64901707      -0.76192513
Al      23.22500000       7.02500000      13.99887240      -0.08924182       0.45341988      -0.18551123
Al      21.20000000       9.05000000       5.00000000      -0.33199466      -0.03631764      -0.72304319
Al      21.20000000      11.07500000       7.02500000      -0.29464514       0.02129562       1.33486603
Al      23.22500000       9.05000000       7.02500000       0.29323949       0.09747931       1.00497423
Al      23.22500000      11.07500000       5.00000000       0.18790077      -0.01522563      -0.29271945
Al      21.11214389       9.11685908       9.31996872      -0.01162922       0.00604960      -0.01416215
Al      21.18196665      11.04780143      11.66740328      -0.00624456      -0.00447693       0.01819978
Al      23.24561570       9.03209986      11.67798718       0.00809522       0.00278044       0.00265052
Al      23.24979324      11.05395384       9.33079675       0.01444647       0.00285796       0.00079577
Al      21.20000000       9.05000000      13.99887240      -0.34860008       0.05274579      -0.18007660
Al      21.20000000      11.07500000      16.28069309      -0.34204829      -0.01350634      -0.39614075
Al      23.22500000       9.05000000      16.28069309      -0.07119152      -0.03533794      -0.59551457
Al      23.22500000      11.07500000      13.99887240       0.07952262      -0.01833861      -0.29552970
Al      21.20000000      13.10000000       5.00000000      -0.33424563      -0.00365477      -0.72899119
Al      21.20000000      15.12500000       7.02500000      -0.27936101       0.00784239       1.37207388
Al      23.22500000      13.10000000       7.02500000       0.33406718      -0.01597710       1.19826907
Al      23.22500000      15.12500000       5.00000000       0.18718563       0.00412121      -0.29487412
Al      21.17564710      13.08394251       9.33143326      -0.00740541      -0.00230789      -0.01469080
Al      21.16947489      15.13535514      11.66383802      -0.01166739       0.00055234       0.01892679
Al      23.22762707      13.09545756      11.66496047       0.01298838       0.00218673       0.00211429
Al      23.22956146      15.13106909       9.33033188       0.01537855      -0.00160329       0.00031965
Al      21.20000000      13.10000000      13.99887240      -0.27869397      -0.01252006      -0.26254112
Al      21.20000000      15.12500000      16.28069309      -0.34218497       0.00442821      -0.39583594
Al      23.22500000      13.10000000      16.28069309      -0.06807621      -0.00430112      -0.59159702
Al      23.22500000      15.12500000      13.99887240       0.07284604       0.01456753      -0.32453719
Al      21.20000000      17.15000000       5.00000000      -0.33399007       0.01290453      -0.72862920
Al      21.20000000      19.17500000       7.02500000      -0.33097081      -0.04796924       1.28332952
Al      23.22500000      17.15000000       7.02500000       0.32917640       0.01430811       1.16794818
Al      23.22500000      19.17500000       5.00000000       0.18439207       0.03415967      -0.28949167
Al      21.17298196      17.17148432       9.32935511      -0.00657727       0.00442976      -0.01364063
Al      21.13291639      19.13484494      11.67747800      -0.01212245      -0.00205541       0.01594159
Al      23.23950497      17.16806210      11.66444184       0.00942031      -0.00440663       0.00126669
Al      23.24592487      19.18577518       9.31646179       0.00695806      -0.00361796      -0.00045461
Al      21.20000000      17.15000000      13.99887240      -0.28344708      -0.00797236      -0.22758955