299
Lattice="28.224999999999998 0.0 0.0 0.0 28.224999999999998 0.0 0.0 0.0 20.125" Properties=species:S:1:pos:R:3 energy=-16436.34958449966 pbc="T T T"
Al       5.00000000       5.00000000       5.00000000
Al       5.00000000       7.02500000       7.02500000
Al       7.02500000       5.00000000       7.02500000
Al       7.02500000       7.02500000       5.00000000
Al       5.41981350       5.42180532       9.55399559
Al       5.32655811       7.31250463      11.95351733
Al       7.21385762       5.07421294      11.99720829
Al       7.35465174       7.34538862       9.48949117
Al       5.00000000       5.00000000      14.40625766
Al       5.00000000       7.02500000      16.80447413
Al       7.02500000       5.00000000      16.80447413
Al       7.02500000       7.02500000      14.40625766
Al       5.00000000       9.05000000       5.00000000
Al       5.00000000      11.07500000       7.02500000
Al       7.02500000       9.05000000       7.02500000
Al       7.02500000      11.07500000       5.00000000
Al       5.06669049       9.05799765       9.42704591
Al       5.01813037      11.03062034      11.92412662
Al       7.31604001       9.34092667      11.92655486
Al       7.09907047      11.09204155       9.43579747
Al       5.00000000       9.05000000      14.40625766
Al       5.00000000      11.07500000      16.80447413
Al       7.02500000       9.05000000      16.80447413
Al       7.02500000      11.07500000      14.40625766
Al       5.00000000      13.10000000       5.00000000
Al       5.00000000      15.12500000       7.02500000
Al       7.02500000      13.10000000       7.02500000
Al       7.02500000      15.12500000       5.00000000
Al       5.06082283      13.10042826       9.46772760
Al       5.12608482      15.14558706      11.93081850
Al       7.09091523      13.04601279      11.93253600
Al       7.08742435      15.14564421       9.45996164
Al       5.00000000      13.10000000      14.40625766
Al       5.00000000      15.12500000      16.80447413
Al       7.02500000      13.10000000      16.80447413
Al       7.02500000      15.12500000      14.40625766
Al       5.00000000      17.15000000       5.00000000
Al       5.00000000      19.17500000       7.02500000
Al       7.02500000      17.15000000       7.02500000
Al       7.02500000      19.17500000       5.00000000
Al       5.03621021      17.18586018       9.47340074
Al       5.05506865      19.25427465      11.94366819
Al       7.10046682      17.24976071      11.93143220
Al       7.19463837      19.04115350       9.40297672
Al       5.00000000      17.15000000      14.40625766
Al       5.00000000      19.17500000      16.80447413
Al       7.02500000      17.15000000      16.80447413
Al       7.02500000      19.17500000      14.40625766
Al       5.00000000      21.20000000       5.00000000
Al       5.00000000      23.22500000       7.02500000
Al       7.02500000      21.20000000       7.02500000
Al       7.02500000      23.22500000       5.00000000
Al       5.17210469      20.97684954       9.37704507
Al       5.64589088      22.57910912      11.84582840
Al       7.61325713      20.61174287      11.87722556
Al       7.24815046      23.05289531       9.37704507
Al       5.00000000      21.20000000      14.40625766
Al       5.00000000      23.22500000      16.80447413
Al       7.02500000      21.20000000      16.80447413
Al       7.02500000      23.22500000      14.40625766
Al       9.05000000       5.00000000       5.00000000
Al       9.05000000       7.02500000       7.02500000
Al      11.07500000       5.00000000       7.02500000
Al      11.07500000       7.02500000       5.00000000
Al       9.01467020       5.02132767       9.44626036
Al       9.08628036       7.14948328      11.96902008
Al      11.04520694       5.07192675      11.92659484
Al      11.00869223       7.09038403       9.46308213
Al       9.05000000       5.00000000      14.40625766
Al       9.05000000       7.02500000      16.80447413
Al      11.07500000       5.00000000      16.80447413
Al      11.07500000       7.02500000      14.40625766
Al       9.05000000       9.05000000       5.00000000
Al       9.05000000      11.07500000       7.02500000
Al      11.07500000       9.05000000       7.02500000
Al      11.07500000      11.07500000       5.00000000
Al       9.24703099       9.28194909       9.46959383
Al       9.35153080      11.34637822      11.92741660
Al      11.08926520       9.10687690      11.95106393
Al      11.21827788      11.18547069       9.47213398
Al       9.05000000       9.05000000      14.40625766
Al       9.05000000      11.07500000      16.80447413
Al      11.07500000       9.05000000      16.80447413
Al      11.07500000      11.07500000      14.40625766
Al       9.05000000      13.10000000       5.00000000
Al       9.05000000      15.12500000       7.02500000
Al      11.07500000      13.10000000       7.02500000
Al      11.07500000      15.12500000       5.00000000
Al       9.08976520      13.11545735       9.44994541
Al       9.06691114      15.15968800      11.92417466
Al      11.42792530      13.42075852      11.87702878
Al      11.10481202      15.09340132       9.31801876
Al       9.05000000      13.10000000      14.40625766
Al       9.05000000      15.12500000      16.80447413
Al      11.07500000      13.10000000      16.80447413
Al      11.07500000      15.12500000      14.40625766
Al       9.05000000      17.15000000       5.00000000
Al       9.05000000      19.17500000       7.02500000
Al      11.07500000      17.15000000       7.02500000
Al      11.07500000      19.17500000       5.00000000
Al       9.14917365      17.06302079       9.40680357
Al       9.61944457      18.60555543      11.88816507
Al      11.70095289      16.52404711      11.84717349
Al      11.16197921      19.07582635       9.40680357
Al       9.05000000      17.15000000      14.40625766
Al       9.05000000      19.17500000      16.80447413
Al      11.07500000      17.15000000      16.80447413
Al      11.07500000      19.17500000      14.40625766
Al       9.05000000      21.20000000       5.00000000
Al       9.05000000      23.22500000       7.02500000
Al      11.07500000      21.20000000       7.02500000
Al      11.07500000      23.22500000       5.00000000
Al       9.18384650      21.03036163       9.40297672
Al       8.97072535      23.16993135      11.94366819
Al      10.97523929      21.12453318      11.93143220
Al      11.03913982      23.18878979       9.47340074
Al       9.05000000      21.20000000      14.40625766
Al       9.05000000      23.22500000      16.80447413
Al      11.07500000      21.20000000      16.80447413
Al      11.07500000      23.22500000      14.40625766
Al      13.10000000       5.00000000       5.00000000
Al      13.10000000       7.02500000       7.02500000
Al      15.12500000       5.00000000       7.02500000
Al      15.12500000       7.02500000       5.00000000
Al      13.08855652       5.10622306       9.46871618
Al      13.08741121       7.11898401      11.93886275
Al      15.13992321       5.10951955      11.92779566
Al      15.17766361       7.08064336       9.45809287
Al      13.10000000       5.00000000      14.40625766
Al      13.10000000       7.02500000      16.80447413
Al      15.12500000       5.00000000      16.80447413
Al      15.12500000       7.02500000      14.40625766
Al      13.10000000       9.05000000       5.00000000
Al      13.10000000      11.07500000       7.02500000
Al      15.12500000       9.05000000       7.02500000
Al      15.12500000      11.07500000       5.00000000
Al      13.09697272       9.02859530       9.45971576
Al      13.17453328      11.06663528      11.93615846
Al      15.21199812       9.03023367      11.93428166
Al      15.04691310      11.13198618       9.42912899
Al      13.10000000       9.05000000      14.40625766
Al      13.10000000      11.07500000      16.80447413
Al      15.12500000       9.05000000      16.80447413
Al      15.12500000      11.07500000      14.40625766
Al      13.10000000      13.10000000       5.00000000
Al      13.10000000      15.12500000       7.02500000
Al      15.12500000      13.10000000       7.02500000
Al      15.12500000      15.12500000       5.00000000
Al      13.11654605      13.15502221       9.32580011
Al      14.60222482      13.62277518      11.86985717
Al      15.06997779      15.10845395       9.32580011
Al      13.10000000      13.10000000      14.40625766
Al      13.10000000      15.12500000      16.80447413
Al      15.12500000      13.10000000      16.80447413
Al      15.12500000      15.12500000      14.40625766
Al      13.10000000      17.15000000       5.00000000
Al      13.10000000      19.17500000       7.02500000
Al      15.12500000      17.15000000       7.02500000
Al      15.12500000      19.17500000       5.00000000
Al      13.13159868      17.12018798       9.31801876
Al      13.06531200      19.15808886      11.92417466
Al      14.80424148      16.79707470      11.87702878
Al      15.10954265      19.13523480       9.44994541
Al      13.10000000      17.15000000      14.40625766
Al      13.10000000      19.17500000      16.80447413
Al      15.12500000      17.15000000      16.80447413
Al      15.12500000      19.17500000      14.40625766
Al      13.10000000      21.20000000       5.00000000
Al      13.10000000      23.22500000       7.02500000
Al      15.12500000      21.20000000       7.02500000
Al      15.12500000      23.22500000       5.00000000
Al      13.07935579      21.13757565       9.45996164
Al      13.07941294      23.09891518      11.93081850
Al      15.17898721      21.13408477      11.93253600
Al      15.12457174      23.16417717       9.46772760
Al      13.10000000      21.20000000      14.40625766
Al      13.10000000      23.22500000      16.80447413
Al      15.12500000      21.20000000      16.80447413
Al      15.12500000      23.22500000      14.40625766
Al      17.15000000       5.00000000       5.00000000
Al      17.15000000       7.02500000       7.02500000
Al      19.17500000       5.00000000       7.02500000
Al      19.17500000       7.02500000       5.00000000
Al      17.19928173       5.01974220       9.47075298
Al      17.25508595       7.06176938      11.93779701
Al      19.25598063       5.02395817      11.95072144
Al      19.04027803       7.19572155       9.41955578
Al      17.15000000       5.00000000      14.40625766
Al      17.15000000       7.02500000      16.80447413
Al      19.17500000       5.00000000      16.80447413
Al      19.17500000       7.02500000      14.40625766
Al      17.15000000       9.05000000       5.00000000
Al      17.15000000      11.07500000       7.02500000
Al      19.17500000       9.05000000       7.02500000
Al      19.17500000      11.07500000       5.00000000
Al      17.05946199       9.16807269       9.42433076
Al      16.72738573      11.49761427      11.89972945
Al      18.75406283       9.47093717      11.89786624
Al      19.05692731      11.16553801       9.42433076
Al      17.15000000       9.05000000      14.40625766
Al      17.15000000      11.07500000      16.80447413
Al      19.17500000       9.05000000      16.80447413
Al      19.17500000      11.07500000      14.40625766
Al      17.15000000      13.10000000       5.00000000
Al      17.15000000      15.12500000       7.02500000
Al      19.17500000      13.10000000       7.02500000
Al      19.17500000      15.12500000       5.00000000
Al      17.09301382      13.17808690       9.42912899
Al      17.15836472      15.05046672      11.93615846
Al      19.19476633      13.01300188      11.93428166
Al      19.19640470      15.12802728       9.45971576
Al      17.15000000      13.10000000      14.40625766
Al      17.15000000      15.12500000      16.80447413
Al      19.17500000      13.10000000      16.80447413
Al      19.17500000      15.12500000      14.40625766
Al      17.15000000      17.15000000       5.00000000
Al      17.15000000      19.17500000       7.02500000
Al      19.17500000      17.15000000       7.02500000
Al      19.17500000      19.17500000       5.00000000
Al      17.03952931      17.00672212       9.47213398
Al      16.87862178      18.87346920      11.92741660
Al      19.11812310      17.13573480      11.95106393
Al      18.94305091      18.97796901       9.46959383
Al      17.15000000      17.15000000      14.40625766
Al      17.15000000      19.17500000      16.80447413
Al      19.17500000      17.15000000      16.80447413
Al      19.17500000      19.17500000      14.40625766
Al      17.15000000      21.20000000       5.00000000
Al      17.15000000      23.22500000       7.02500000
Al      19.17500000      21.20000000       7.02500000
Al      19.17500000      23.22500000       5.00000000
Al      17.13295845      21.12592953       9.43579747
Al      17.19437966      23.20686963      11.92412662
Al      18.88407333      20.90895999      11.92655486
Al      19.16700235      23.15830951       9.42704591
Al      17.15000000      21.20000000      14.40625766
Al      17.15000000      23.22500000      16.80447413
Al      19.17500000      21.20000000      16.80447413
Al      19.17500000      23.22500000      14.40625766
Al      21.20000000       5.00000000       5.00000000
Al      21.20000000       7.02500000       7.02500000
Al      23.22500000       5.00000000       7.02500000
Al      23.22500000       7.02500000       5.00000000
Al      20.98266303       5.17072449       9.39092978
Al      20.72383042       7.50116958      11.88472788
Al      22.67530299       5.54969701      11.84760469
Al      23.05427551       7.24233697       9.39092978
Al      21.20000000       5.00000000      14.40625766
Al      21.20000000       7.02500000      16.80447413
Al      23.22500000       5.00000000      16.80447413
Al      23.22500000       7.02500000      14.40625766
Al      21.20000000       9.05000000       5.00000000
Al      21.20000000      11.07500000       7.02500000
Al      23.22500000       9.05000000       7.02500000
Al      23.22500000      11.07500000       5.00000000
Al      21.02927845       9.18472197       9.41955578
Al      21.16323062      10.96991405      11.93779701
Al      23.20104183       8.96901937      11.95072144
Al      23.20525780      11.02571827       9.47075298
Al      21.20000000       9.05000000      14.40625766
Al      21.20000000      11.07500000      16.80447413
Al      23.22500000       9.05000000      16.80447413
Al      23.22500000      11.07500000      14.40625766
Al      21.20000000      13.10000000       5.00000000
Al      21.20000000      15.12500000       7.02500000
Al      23.22500000      13.10000000       7.02500000
Al      23.22500000      15.12500000       5.00000000
Al      21.14435664      13.04733639       9.45809287
Al      21.10601599      15.13758879      11.93886275
Al      23.11548045      13.08507679      11.92779566
Al      23.11877694      15.13644348       9.46871618
Al      21.20000000      13.10000000      14.40625766
Al      21.20000000      15.12500000      16.80447413
Al      23.22500000      13.10000000      16.80447413
Al      23.22500000      15.12500000      14.40625766
Al      21.20000000      17.15000000       5.00000000
Al      21.20000000      19.17500000       7.02500000
Al      23.22500000      17.15000000       7.02500000
Al      23.22500000      19.17500000       5.00000000
Al      21.13461597      17.21630777       9.46308213
Al      21.07551672      19.13871964      11.96902008
Al      23.15307325      17.17979306      11.92659484
Al      23.20367233      19.21032980       9.44626036
Al      21.20000000      17.15000000      14.40625766
Al      21.20000000      19.17500000      16.80447413
Al      23.22500000      17.15000000      16.80447413
Al      23.22500000      19.17500000      14.40625766
Al      21.20000000      21.20000000       5.00000000
Al      21.20000000      23.22500000       7.02500000
Al      23.22500000      21.20000000       7.02500000
Al      23.22500000      23.22500000       5.00000000
Al      20.87961138      20.87034826       9.48949117
Al      20.91249537      22.89844189      11.95351733
Al      23.15078706      21.01114238      11.99720829
Al      22.80319468      22.80518650       9.55399559
Al      21.20000000      21.20000000      14.40625766
Al      21.20000000      23.22500000      16.80447413
Al      23.22500000      21.20000000      16.80447413
Al      23.22500000      23.22500000      14.40625766
