299
Lattice="28.224999999999998 0.0 0.0 0.0 28.224999999999998 0.0 0.0 0.0 20.125" Properties=species:S:1:pos:R:3:forces:R:3 energy=-16469.496454558204 pbc="T T T"
Al       5.00000000       5.00000000       5.00000000       0.33925152       0.33953921       0.29573369
Al       5.00000000       7.02500000       7.02500000      -0.40627866       0.29706571       0.57378955
Al       7.02500000       5.00000000       7.02500000       0.28884582      -0.40563040       0.57090485
Al       7.02500000       7.02500000       5.00000000       0.32088211       0.32291461      -0.60800980
Al       5.02747262       5.02881748       9.13691923       0.01744295       0.01953748       0.00679092
Al       4.92857971       7.06938337      11.22594648       0.02640200       0.00342317       0.00932959
Al       7.06473928       4.91836029      11.22657880       0.00210123       0.02145789       0.00966224
Al       7.05695703       7.05627370       9.13957578      -0.01574474      -0.01466732      -0.00255449
Al       5.00000000       5.00000000      13.31475834       0.16070739       0.17002086      -0.52514302
Al       5.00000000       7.02500000      15.40111786      -0.00805713       0.45897249      -0.15085046
Al       7.02500000       5.00000000      15.40111786       0.45736119      -0.00854894      -0.15157032
Al       7.02500000       7.02500000      13.31475834       0.21476632       0.21968074      -0.51574730
Al       5.00000000       9.05000000       5.00000000      -0.19465760      -0.03153440      -0.19961481
Al       5.00000000      11.07500000       7.02500000      -0.53627680      -0.01255025       0.50044234
Al       7.02500000       9.05000000       7.02500000       0.14333316      -0.00903912       0.72888322
Al       7.02500000      11.07500000       5.00000000       0.32563208      -0.00995976      -0.66461888
Al       4.86658904       9.04385904       9.09759020       0.00756420       0.00464361      -0.00525335
Al       4.83884172      11.06197465      11.22438114       0.01754327       0.00518797       0.00898841
Al       7.02461120       9.07590573      11.20530719       0.00836675       0.01160227       0.02523935
Al       6.99382785      11.07755895       9.13131679       0.00699172       0.00552362       0.00480401
Al       5.00000000       9.05000000      13.31475834      -0.42861784       0.01274664      -0.21792015
Al       5.00000000      11.07500000      15.40111786      -0.12377176      -0.01574307      -0.05357089
Al       7.02500000       9.05000000      15.40111786       0.32071305      -0.04091701       0.34381650
Al       7.02500000      11.07500000      13.31475834       0.12926759       0.01594447      -0.47029201
Al       5.00000000      13.10000000       5.00000000      -0.19879764      -0.00216002      -0.19876233
Al       5.00000000      15.12500000       7.02500000      -0.55920311       0.01470043       0.50301254
Al       7.02500000      13.10000000       7.02500000       0.11345006      -0.00175251       0.77579760
Al       7.02500000      15.12500000       5.00000000       0.32405904       0.00380482      -0.66397648
Al       4.83760068      13.09561797       9.10340754       0.00735294      -0.00333989      -0.00365741
Al       4.83915275      15.12807224      11.22469157       0.01655011       0.00070524       0.01147023
Al       6.97214397      13.09280427      11.19661588       0.01012720      -0.00390783       0.02734830
Al       6.97661651      15.12825362       9.13002399       0.00396434      -0.00173307      -0.00286450
Al       5.00000000      13.10000000      13.31475834      -0.47627787      -0.01759835      -0.28799512
Al       5.00000000      15.12500000      15.40111786      -0.12342371       0.00452382      -0.05211818
Al       7.02500000      13.10000000      15.40111786       0.32345448      -0.00317378       0.34230492
Al       7.02500000      15.12500000      13.31475834       0.06114501       0.00120148      -0.44540727
Al       5.00000000      17.15000000       5.00000000      -0.19866744       0.01483326      -0.19966013
Al       5.00000000      19.17500000       7.02500000      -0.51339802      -0.00714797       0.43626800
Al       7.02500000      17.15000000       7.02500000       0.11989629      -0.01037833       0.74918776
Al       7.02500000      19.17500000       5.00000000       0.32233486       0.03903821      -0.66548059
Al       4.84081159      17.16269236       9.10417886       0.00600064      -0.00562851      -0.00055570
Al       4.85609199      19.18481005      11.23323570       0.01426114      -0.00288949       0.01364120
Al       6.97858318      17.15807690      11.19928061       0.00753541      -0.00746871       0.02010159
Al       7.01974864      19.15713951       9.12740518       0.00240072      -0.01108050      -0.00247554
Al       5.00000000      17.15000000      13.31475834      -0.47214238       0.01118457      -0.26526895
Al       5.00000000      19.17500000      15.40111786      -0.11692485       0.03713678      -0.05199949
Al       7.02500000      17.15000000      15.40111786       0.32391259       0.01391807       0.34586638
Al       7.02500000      19.17500000      13.31475834       0.16007382       0.01000229      -0.44657403
Al       5.00000000      21.20000000       5.00000000      -0.08562149      -0.45554815      -0.10379879
Al       5.00000000      23.22500000       7.02500000       0.06997301      -0.06997301       0.68194974
Al       7.02500000      21.20000000       7.02500000       0.21470865      -0.21470865       0.79369494
Al       7.02500000      23.22500000       5.00000000       0.45554815       0.08562149      -0.10379879
Al       4.92762295      21.15774817       9.10632029       0.01743683       0.00388513      -0.00757448
Al       5.03185194      23.19314806      11.19727689       0.03353844      -0.03353844      -0.01798260
Al       7.06750944      21.15749056      11.19380525      -0.01866261       0.01866261       0.01669674
Al       7.06725183      23.29737705       9.10632029      -0.00388513      -0.01743683      -0.00757448
Al       5.00000000      21.20000000      13.31475834      -0.31669835      -0.30009667      -0.33448758
Al       5.00000000      23.22500000      15.40111786       0.43157086      -0.43157086      -0.47321839
Al       7.02500000      21.20000000      15.40111786       0.31886398      -0.31886398       0.29327071
Al       7.02500000      23.22500000      13.31475834       0.30009667       0.31669835      -0.33448758
Al       9.05000000       5.00000000       5.00000000      -0.03362243      -0.19595049      -0.19943115
Al       9.05000000       7.02500000       7.02500000      -0.01896641       0.14119828       0.72760761
Al      11.07500000       5.00000000       7.02500000      -0.01046094      -0.55093066       0.49718933
Al      11.07500000       7.02500000       5.00000000      -0.01138890       0.32781297      -0.66268895
Al       9.04082134       4.85850580       9.09673906       0.00512353       0.00286650      -0.00361368
Al       9.05949969       7.00803785      11.20469230       0.01125482       0.01057537       0.02577741
Al      11.06372190       4.84197727      11.22463484       0.00564720       0.01357852       0.00692557
Al      11.06882366       6.98353247       9.12903881       0.00816163       0.00904629       0.00381071
Al       9.05000000       5.00000000      13.31475834       0.01000307      -0.44428657      -0.21157690
Al       9.05000000       7.02500000      15.40111786      -0.04251558       0.32262352       0.34273964
Al      11.07500000       5.00000000      15.40111786      -0.01694146      -0.12482302      -0.05351977
Al      11.07500000       7.02500000      13.31475834       0.00849327       0.09718604      -0.44938733
Al       9.05000000       9.05000000       5.00000000      -0.03731315      -0.03477922      -0.73001768
Al       9.05000000      11.07500000       7.02500000      -0.05786811       0.03312890       0.64356873
Al      11.07500000       9.05000000       7.02500000       0.00546169      -0.05896149       0.63834356
Al      11.07500000      11.07500000       5.00000000      -0.01673387      -0.01496799      -0.72633041
Al       9.06461047       9.06727332       9.11777063       0.01092704       0.00975730       0.00034899
Al       9.07587462      11.11346645      11.21600041       0.01311674       0.01157867       0.02992913
Al      11.07417843       9.03403589      11.21295983       0.01463393       0.00988667       0.03514182
Al      11.08767854      11.09146126       9.12591290       0.02280742       0.01748221       0.01157365
Al       9.05000000       9.05000000      13.31475834      -0.05038249      -0.03095099      -0.36197132
Al       9.05000000      11.07500000      15.40111786      -0.04346083      -0.01445779       0.40363934
Al      11.07500000       9.05000000      15.40111786      -0.01592837      -0.04178471       0.39999249
Al      11.07500000      11.07500000      13.31475834       0.01417361       0.05123693      -0.37264016
Al       9.05000000      13.10000000       5.00000000      -0.04218870      -0.00340110      -0.72868418
Al       9.05000000      15.12500000       7.02500000      -0.04254836      -0.00256071       0.67549405
Al      11.07500000      13.10000000       7.02500000      -0.00537397       0.01814076       0.60327571
Al      11.07500000      15.12500000       5.00000000      -0.01672038       0.00544369      -0.72162053
Al       9.04684133      13.11162285       9.12623425       0.01298039       0.00101718      -0.00195396
Al       9.00812530      15.12569868      11.21582968       0.01342633      -0.00299990       0.03343188
Al      11.16821102      13.19926429      11.22630967       0.01959190       0.00072677       0.03589929
Al      11.10092809      15.12501691       9.13159865       0.01633984      -0.00871393      -0.01449625
Al       9.05000000      13.10000000      13.31475834      -0.03040369       0.02887175      -0.39873108
Al       9.05000000      15.12500000      15.40111786      -0.04242023       0.00563655       0.39771828
Al      11.07500000      13.10000000      15.40111786      -0.02642480      -0.01008625       0.40785247
Al      11.07500000      15.12500000      13.31475834       0.25901760       0.00462550      -0.34282326
Al       9.05000000      17.15000000       5.00000000      -0.04090732       0.01386642      -0.73196206
Al       9.05000000      19.17500000       7.02500000      -0.03165687       0.03165687       0.64379808
Al      11.07500000      17.15000000       7.02500000       0.01198334      -0.01198334       0.59139512
Al      11.07500000      19.17500000       5.00000000      -0.01386642       0.04090732      -0.73196206
Al       9.05687457      17.13474152       9.12480710       0.01289283      -0.01851492       0.00612770
Al       9.09476340      19.13023660      11.21613667       0.01303344      -0.01303344       0.02898356
Al      11.17630946      17.04869054      11.22585878       0.01744398      -0.01744398       0.03421425
Al      11.09025848      19.16812543       9.12480710       0.01851492      -0.01289283       0.00612770
Al       9.05000000      17.15000000      13.31475834      -0.01243090      -0.03765198      -0.38094993
Al       9.05000000      19.17500000      15.40111786      -0.04046713       0.04046713       0.41205772
Al      11.07500000      17.15000000      15.40111786      -0.02359144       0.02359144       0.41060588
Al      11.07500000      19.17500000      13.31475834       0.03765198       0.01243090      -0.38094993
Al       9.05000000      21.20000000       5.00000000      -0.03903821      -0.32233486      -0.66548059
Al       9.05000000      23.22500000       7.02500000       0.00714797       0.51339802       0.43626800
Al      11.07500000      21.20000000       7.02500000       0.01037833      -0.11989629       0.74918776
Al      11.07500000      23.22500000       5.00000000      -0.01483326       0.19866744      -0.19966013
Al       9.06786049      21.20525136       9.12740518       0.01108050      -0.00240072      -0.00247554
Al       9.04018995      23.36890801      11.23323570       0.00288949      -0.01426114       0.01364120
Al      11.06692310      21.24641682      11.19928061       0.00746871      -0.00753541       0.02010159
Al      11.06230764      23.38418841       9.10417886       0.00562851      -0.00600064      -0.00055570
Al       9.05000000      21.20000000      13.31475834      -0.01000229      -0.16007382      -0.44657403
Al       9.05000000      23.22500000      15.40111786      -0.03713678       0.11692485      -0.05199949
Al      11.07500000      21.20000000      15.40111786      -0.01391807      -0.32391259       0.34586638
Al      11.07500000      23.22500000      13.31475834      -0.01118457       0.47214238      -0.26526895
Al      13.10000000       5.00000000       5.00000000      -0.00360482      -0.20045312      -0.19843493
Al      13.10000000       7.02500000       7.02500000      -0.00035819       0.07959428       0.75170576
Al      15.12500000       5.00000000       7.02500000       0.01691018      -0.55458910       0.51855600
Al      15.12500000       7.02500000       5.00000000       0.00279374       0.32790308      -0.65919617
Al      13.09687394       4.84033513       9.10444062      -0.00032346       0.00351532      -0.00276300
Al      13.09690302       6.97878444      11.19752595      -0.00071295       0.00910286       0.02709696
Al      15.12830094       4.83899577      11.22535389       0.00328075       0.01352723       0.00809862
Al      15.12995185       6.97702076       9.13167004       0.00491145       0.01319409      -0.00578459
Al      13.10000000       5.00000000      13.31475834      -0.01527129      -0.46977880      -0.29884787
Al      13.10000000       7.02500000      15.40111786      -0.00563273       0.32477977       0.33955761
Al      15.12500000       5.00000000      15.40111786       0.00267538      -0.12623371      -0.05398867
Al      15.12500000       7.02500000      13.31475834       0.00439607       0.08889497      -0.47591626
Al      13.10000000       9.05000000       5.00000000      -0.00394575      -0.04051852      -0.72390515
Al      13.10000000      11.07500000       7.02500000      -0.00585198       0.02845594       0.65911794
Al      15.12500000       9.05000000       7.02500000       0.00207447      -0.07662267       0.65558385
Al      15.12500000      11.07500000       5.00000000       0.00519363      -0.01751435      -0.72409294
Al      13.09901867       9.02722471       9.11446201       0.00591194       0.00885172      -0.00247298
Al      13.10082671      11.04584608      11.21676454       0.00546053       0.01363583       0.02685388
Al      15.13017471       9.02336482      11.21183922       0.00266650       0.01141816       0.03658265
Al      15.11210509      11.08499144       9.12607334      -0.00190569       0.01490642       0.00553228
Al      13.10000000       9.05000000      13.31475834       0.00084494      -0.13323974      -0.32625853
Al      13.10000000      11.07500000      15.40111786      -0.00715385      -0.01746705       0.38998177
Al      15.12500000       9.05000000      15.40111786       0.00306142      -0.04284961       0.39672546
Al      15.12500000      11.07500000      13.31475834      -0.02119068       0.03397970      -0.37933101
Al      13.10000000      13.10000000       5.00000000      -0.00652996      -0.00350971      -0.72080862
Al      13.10000000      15.12500000       7.02500000      -0.01262647       0.01262647       0.37892419
Al      15.12500000      13.10000000       7.02500000      -0.01226162       0.01226162       0.61215982
Al      15.12500000      15.12500000       5.00000000       0.00350971       0.00652996      -0.72080862
Al      13.09845442      13.13257266       9.13297567       0.00916993      -0.00208697      -0.00659904
Al      15.02597106      13.19902894      11.22649646      -0.00561249       0.00561249       0.03344993
Al      15.09242734      15.12654558       9.13297567       0.00208697      -0.00916993      -0.00659904
Al      13.10000000      13.10000000      13.31475834      -0.01654410       0.27559787      -0.35736194
Al      13.10000000      15.12500000      15.40111786      -0.00850204       0.00850204       0.52022327
Al      15.12500000      13.10000000      15.40111786       0.01141260      -0.01141260       0.40607845
Al      15.12500000      15.12500000      13.31475834      -0.27559787       0.01654410      -0.35736194
Al      13.10000000      17.15000000       5.00000000      -0.00544369       0.01672038      -0.72162053
Al      13.10000000      19.17500000       7.02500000       0.00256071       0.04254836       0.67549405
Al      15.12500000      17.15000000       7.02500000      -0.01814076       0.00537397       0.60327571
Al      15.12500000      19.17500000       5.00000000       0.00340110       0.04218870      -0.72868418
Al      13.09998309      17.12407191       9.13159865       0.00871393      -0.01633984      -0.01449625
Al      13.09930132      19.21687470      11.21582968       0.00299990      -0.01342633       0.03343188
Al      15.02573571      17.05678898      11.22630967      -0.00072677      -0.01959190       0.03589929
Al      15.11337715      19.17815867       9.12623425      -0.00101718      -0.01298039      -0.00195396
Al      13.10000000      17.15000000      13.31475834      -0.00462550      -0.25901760      -0.34282326
Al      13.10000000      19.17500000      15.40111786      -0.00563655       0.04242023       0.39771828
Al      15.12500000      17.15000000      15.40111786       0.01008625       0.02642480       0.40785247
Al      15.12500000      19.17500000      13.31475834      -0.02887175       0.03040369      -0.39873108
Al      13.10000000      21.20000000       5.00000000      -0.00380482      -0.32405904      -0.66397648
Al      13.10000000      23.22500000       7.02500000      -0.01470043       0.55920311       0.50301254
Al      15.12500000      21.20000000       7.02500000       0.00175251      -0.11345006       0.77579760
Al      15.12500000      23.22500000       5.00000000       0.00216002       0.19879764      -0.19876233
Al      13.09674638      21.24838349       9.13002399       0.00173307      -0.00396434      -0.00286450
Al      13.09692776      23.38584725      11.22469157      -0.00070524      -0.01655011       0.01147023
Al      15.13219573      21.25285603      11.19661588       0.00390783      -0.01012720       0.02734830
Al      15.12938203      23.38739932       9.10340754       0.00333989      -0.00735294      -0.00365741
Al      13.10000000      21.20000000      13.31475834      -0.00120148      -0.06114501      -0.44540727
Al      13.10000000      23.22500000      15.40111786      -0.00452382       0.12342371      -0.05211818
Al      15.12500000      21.20000000      15.40111786       0.00317378      -0.32345448       0.34230492
Al      15.12500000      23.22500000      13.31475834       0.01759835       0.47627787      -0.28799512
Al      17.15000000       5.00000000       5.00000000       0.01333013      -0.20094425      -0.19755769
Al      17.15000000       7.02500000       7.02500000      -0.00649502       0.10869427       0.74850067
Al      19.17500000       5.00000000       7.02500000      -0.00805598      -0.51817793       0.44768479
Al      19.17500000       7.02500000       5.00000000       0.03621766       0.32595125      -0.65919928
Al      17.16242124       4.84131771       9.10481086      -0.00590205       0.00484859       0.00172212
Al      17.15664901       6.98187501      11.19995176      -0.00436258       0.01718208       0.01894205
Al      19.18410328       4.85787603      11.23346331      -0.00678182       0.01221701       0.01018730
Al      19.16131075       7.01413403       9.12622043      -0.01608178       0.01641246      -0.00609236
Al      17.15000000       5.00000000      13.31475834       0.01276087      -0.46809363      -0.27948904
Al      17.15000000       7.02500000      15.40111786       0.01290820       0.32517957       0.34119736
Al      19.17500000       5.00000000      15.40111786       0.03553686      -0.12023511      -0.05407944
Al      19.17500000       7.02500000      13.31475834       0.01401394       0.15117804      -0.45191869
Al      17.15000000       9.05000000       5.00000000       0.01271793      -0.03809760      -0.72334842
Al      17.15000000      11.07500000       7.02500000      -0.01141331       0.01141331       0.63285178
Al      19.17500000       9.05000000       7.02500000       0.04914380      -0.04914380       0.64334800
Al      19.17500000      11.07500000       5.00000000       0.03809760      -0.01271793      -0.72334842
Al      17.14089739       9.04886636       9.11784309      -0.00989394       0.01177136       0.00324819
Al      17.11412953      11.11087047      11.21578467      -0.01324979       0.01324979       0.02307883
Al      19.15266139       9.07233861      11.21410752      -0.01254778       0.01254778       0.03164305
Al      19.17613364      11.08410261       9.11784309      -0.01177136       0.00989394       0.00324819
Al      17.15000000       9.05000000      13.31475834      -0.00920654      -0.05699991      -0.36410457
Al      17.15000000      11.07500000      15.40111786       0.01671216      -0.01671216       0.39537526
Al      19.17500000       9.05000000      15.40111786       0.03944933      -0.03944933       0.40400889
Al      19.17500000      11.07500000      13.31475834       0.05699991       0.00920654      -0.36410457
Al      17.15000000      13.10000000       5.00000000       0.01751435      -0.00519363      -0.72409294
Al      17.15000000      15.12500000       7.02500000      -0.02845594       0.00585198       0.65911794
Al      19.17500000      13.10000000       7.02500000       0.07662267      -0.00207447       0.65558385
Al      19.17500000      15.12500000       5.00000000       0.04051852       0.00394575      -0.72390515
Al      17.14000856      13.11289491       9.12607334      -0.01490642       0.00190569       0.00553228
Al      17.17915392      15.12417329      11.21676454      -0.01363583      -0.00546053       0.02685388
Al      19.20163518      13.09482529      11.21183922      -0.01141816      -0.00266650       0.03658265
Al      19.19777529      15.12598133       9.11446201      -0.00885172      -0.00591194      -0.00247298
Al      17.15000000      13.10000000      13.31475834      -0.03397970       0.02119068      -0.37933101
Al      17.15000000      15.12500000      15.40111786       0.01746705       0.00715385       0.38998177
Al      19.17500000      13.10000000      15.40111786       0.04284961      -0.00306142       0.39672546
Al      19.17500000      15.12500000      13.31475834       0.13323974      -0.00084494      -0.32625853
Al      17.15000000      17.15000000       5.00000000       0.01496799       0.01673387      -0.72633041
Al      17.15000000      19.17500000       7.02500000      -0.03312890       0.05786811       0.64356873
Al      19.17500000      17.15000000       7.02500000       0.05896149      -0.00546169       0.63834356
Al      19.17500000      19.17500000       5.00000000       0.03477922       0.03731315      -0.73001768
Al      17.13353874      17.13732146       9.12591290      -0.01748221      -0.02280742       0.01157365
Al      17.11153355      19.14912538      11.21600041      -0.01157867      -0.01311674       0.02992913
Al      19.19096411      17.15082157      11.21295983      -0.00988667      -0.01463393       0.03514182
Al      19.15772668      19.16038953       9.11777063      -0.00975730      -0.01092704       0.00034899
Al      17.15000000      17.15000000      13.31475834      -0.05123693      -0.01417361      -0.37264016
Al      17.15000000      19.17500000      15.40111786       0.01445779       0.04346083       0.40363934
Al      19.17500000      17.15000000      15.40111786       0.04178471       0.01592837       0.39999249
Al      19.17500000      19.17500000      13.31475834       0.03095099       0.05038249      -0.36197132
Al      17.15000000      21.20000000       5.00000000       0.00995976      -0.32563208      -0.66461888
Al      17.15000000      23.22500000       7.02500000       0.01255025       0.53627680       0.50044234
Al      19.17500000      21.20000000       7.02500000       0.00903912      -0.14333316       0.72888322
Al      19.17500000      23.22500000       5.00000000       0.03153440       0.19465760      -0.19961481
Al      17.14744105      21.23117215       9.13131679      -0.00552362      -0.00699172       0.00480401
Al      17.16302535      23.38615828      11.22438114      -0.00518797      -0.01754327       0.00898841
Al      19.14909427      21.20038880      11.20530719      -0.01160227      -0.00836675       0.02523935
Al      19.18114096      23.35841096       9.09759020      -0.00464361      -0.00756420      -0.00525335
Al      17.15000000      21.20000000      13.31475834      -0.01594447      -0.12926759      -0.47029201
Al      17.15000000      23.22500000      15.40111786       0.01574307       0.12377176      -0.05357089
Al      19.17500000      21.20000000      15.40111786       0.04091701      -0.32071305       0.34381650
Al      19.17500000      23.22500000      13.31475834      -0.01274664       0.42861784      -0.21792015
Al      21.20000000       5.00000000       5.00000000      -0.45598665      -0.09026727      -0.10331266
Al      21.20000000       7.02500000       7.02500000      -0.21502770       0.21502770       0.80613180
Al      23.22500000       5.00000000       7.02500000      -0.06378693       0.06378693       0.68361457
Al      23.22500000       7.02500000       5.00000000       0.09026727       0.45598665      -0.10331266
Al      21.16015683       4.92356677       9.10627318      -0.00282120       0.01170463      -0.00697124
Al      21.16686631       7.05813369      11.19335456       0.00605740      -0.00605740       0.01733761
Al      23.19738381       5.02761619      11.19840449      -0.02573894       0.02573894      -0.01898912
Al      23.30143323       7.06484317       9.10627318      -0.01170463       0.00282120      -0.00697124
Al      21.20000000       5.00000000      13.31475834      -0.30106954      -0.32496953      -0.34106789
Al      21.20000000       7.02500000      15.40111786      -0.32056709       0.32056709       0.28970613
Al      23.22500000       5.00000000      15.40111786      -0.42721111       0.42721111      -0.47393661
Al      23.22500000       7.02500000      13.31475834       0.32496953       0.30106954      -0.34106789
Al      21.20000000       9.05000000       5.00000000      -0.32595125      -0.03621766      -0.65919928
Al      21.20000000      11.07500000       7.02500000      -0.10869427       0.00649502       0.74850067
Al      23.22500000       9.05000000       7.02500000       0.51817793       0.00805598       0.44768479
Al      23.22500000      11.07500000       5.00000000       0.20094425      -0.01333013      -0.19755769
Al      21.21086597       9.06368925       9.12622043      -0.01641246       0.01608178      -0.00609236
Al      21.24312499      11.06835099      11.19995176      -0.01718208       0.00436258       0.01894205
Al      23.36712397       9.04089672      11.23346331      -0.01221701       0.00678182       0.01018730
Al      23.38368229      11.06257876       9.10481086      -0.00484859       0.00590205       0.00172212
Al      21.20000000       9.05000000      13.31475834      -0.15117804      -0.01401394      -0.45191869
Al      21.20000000      11.07500000      15.40111786      -0.32517957      -0.01290820       0.34119736
Al      23.22500000       9.05000000      15.40111786       0.12023511      -0.03553686      -0.05407944
Al      23.22500000      11.07500000      13.31475834       0.46809363      -0.01276087      -0.27948904
Al      21.20000000      13.10000000       5.00000000      -0.32790308      -0.00279374      -0.65919617
Al      21.20000000      15.12500000       7.02500000      -0.07959428       0.00035819       0.75170576
Al      23.22500000      13.10000000       7.02500000       0.55458910      -0.01691018       0.51855600
Al      23.22500000      15.12500000       5.00000000       0.20045312       0.00360482      -0.19843493
Al      21.24797924      13.09504815       9.13167004      -0.01319409      -0.00491145      -0.00578459
Al      21.24621556      15.12809698      11.19752595      -0.00910286       0.00071295       0.02709696
Al      23.38600423      13.09669906      11.22535389      -0.01352723      -0.00328075       0.00809862
Al      23.38466487      15.12812606       9.10444062      -0.00351532       0.00032346      -0.00276300
Al      21.20000000      13.10000000      13.31475834      -0.08889497      -0.00439607      -0.47591626
Al      21.20000000      15.12500000      15.40111786      -0.32477977       0.00563273       0.33955761
Al      23.22500000      13.10000000      15.40111786       0.12623371      -0.00267538      -0.05398867
Al      23.22500000      15.12500000      13.31475834       0.46977880       0.01527129      -0.29884787
Al      21.20000000      17.15000000       5.00000000      -0.32781297       0.01138890      -0.66268895
Al      21.20000000      19.17500000       7.02500000      -0.14119828       0.01896641       0.72760761
Al      23.22500000      17.15000000       7.02500000       0.55093066       0.01046094       0.49718933
Al      23.22500000      19.17500000       5.00000000       0.19595049       0.03362243      -0.19943115
Al      21.24146753      17.15617634       9.12903881      -0.00904629      -0.00816163       0.00381071
Al      21.21696215      19.16550031      11.20469230      -0.01057537      -0.01125482       0.02577741
Al      23.38302273      17.16127810      11.22463484      -0.01357852      -0.00564720       0.00692557
Al      23.36649420      19.18417866       9.09673906      -0.00286650      -0.00512353      -0.00361368
Al      21.20000000      17.15000000      13.31475834      -0.09718604      -0.00849327      -0.44938733