299
Lattice="28.224999999999998 0.0 0.0 0.0 28.224999999999998 0.0 0.0 0.0 20.125" Properties=species:S:1:pos:R:3:forces:R:3 energy=-16429.09286832747 pbc="T T T"
Al       5.00000000       5.00000000       5.00000000       0.37942315       0.37779745       0.06326303
Al       5.00000000       7.02500000       7.02500000      -0.03640911       0.51860779       1.28256768
Al       7.02500000       5.00000000       7.02500000       0.52825049      -0.04386872       1.29112615
Al       7.02500000       7.02500000       5.00000000       0.32434298       0.32790954      -0.74670175
Al       5.50755698       5.50241882       9.58191283      -0.00220330      -0.00189596      -0.00460771
Al       5.23742632       7.25841737      12.09317584      -0.00030319       0.00152656      -0.00404858
Al       7.28552247       5.18683485      12.07975746      -0.00264485       0.00013592      -0.00540640
Al       7.45907141       7.39650803       9.54735117      -0.00063056       0.00517671      -0.00338576
Al       5.00000000       5.00000000      14.57497219       0.94730687       0.93659705      -0.32219411
Al       5.00000000       7.02500000      17.02139281       0.27784269       0.48079124      -0.98841243
Al       7.02500000       5.00000000      17.02139281       0.47890441       0.27654816      -0.98856478
Al       7.02500000       7.02500000      14.57497219       0.47631027       0.46172163       0.00401456
Al       5.00000000       9.05000000       5.00000000      -0.16935751      -0.03053330      -0.36720493
Al       5.00000000      11.07500000       7.02500000      -0.23085615       0.02778129       1.55084309
Al       7.02500000       9.05000000       7.02500000       0.40926263       0.08537983       1.72672025
Al       7.02500000      11.07500000       5.00000000       0.33146196      -0.00338347      -0.79226086
Al       5.10771063       9.00854083       9.48857128       0.00923619       0.00871282      -0.00305707
Al       5.06462086      11.08643152      12.02616325      -0.00050774       0.00943659      -0.00351012
Al       7.21182415       9.23657282      12.04736196      -0.00784801       0.01630573      -0.00824984
Al       7.02219051      11.15109266       9.49096746       0.00424938       0.02463599      -0.00414190
Al       5.00000000       9.05000000      14.57497219       0.18256466       0.13306314      -0.08968807
Al       5.00000000      11.07500000      17.02139281       0.17066004      -0.01003812      -0.89244988
Al       7.02500000       9.05000000      17.02139281       0.34667656      -0.03432474      -0.81532071
Al       7.02500000      11.07500000      14.57497219       0.33203491       0.06246832      -0.13481598
Al       5.00000000      13.10000000       5.00000000      -0.16993279       0.00512750      -0.36232035
Al       5.00000000      15.12500000       7.02500000      -0.11774378      -0.01735701       1.41680055
Al       7.02500000      13.10000000       7.02500000       0.37871547       0.00259562       1.77183626
Al       7.02500000      15.12500000       5.00000000       0.33582612       0.01251462      -0.78513756
Al       5.03928070      13.19730674       9.50596767       0.01176210       0.01274353       0.00013956
Al       5.12001213      15.19964057      12.04668813       0.00473022       0.00086140       0.00107797
Al       7.09195922      13.13769534      12.04809352       0.00219348       0.01579389      -0.00837066
Al       7.26879329      14.99088005       9.51021924       0.01593872       0.00181635      -0.00730602
Al       5.00000000      13.10000000      14.57497219       0.14283958       0.02268366      -0.27434482
Al       5.00000000      15.12500000      17.02139281       0.17452579       0.01010798      -0.89359604
Al       7.02500000      13.10000000      17.02139281       0.34894795       0.00208570      -0.81715229
Al       7.02500000      15.12500000      14.57497219       0.43942810      -0.01263325      -0.16533662
Al       5.00000000      17.15000000       5.00000000      -0.16042503       0.01656579      -0.36281166
Al       5.00000000      19.17500000       7.02500000      -0.16636281      -0.19920277       1.32067269
Al       7.02500000      17.15000000       7.02500000       0.40733793      -0.06467954       1.63590885
Al       7.02500000      19.17500000       5.00000000       0.33519549       0.03905057      -0.76821806
Al       5.22471595      17.02674203       9.47556296       0.02125791       0.00081206       0.00140323
Al       5.33256533      18.93188298      11.99621088       0.00542474      -0.00336863       0.00406175
Al       7.37923316      16.96620506      12.01699349       0.00235992      -0.00422604      -0.01056910
Al       7.12964187      19.13820309       9.45407207       0.00743901      -0.00406638      -0.00090940
Al       5.00000000      17.15000000      14.57497219       0.23732180      -0.01438952      -0.15458169
Al       5.00000000      19.17500000      17.02139281       0.18801179       0.03815935      -0.88451116
Al       7.02500000      17.15000000      17.02139281       0.34930071       0.01880640      -0.81539734
Al       7.02500000      19.17500000      14.57497219       0.33796213       0.01992405      -0.05220956
Al       5.00000000      21.20000000       5.00000000      -0.06635429      -0.45471047      -0.23286718
Al       5.00000000      23.22500000       7.02500000       0.49765547      -0.49765547       0.96834645
Al       7.02500000      21.20000000       7.02500000       0.41563407      -0.41563407       1.47755522
Al       7.02500000      23.22500000       5.00000000       0.45471047       0.06635429      -0.23286718
Al       5.11196008      21.02533038       9.39106481       0.02144817      -0.01388897       0.00057370
Al       6.77614129      21.44885871      12.00615986       0.01385806      -0.01385806      -0.00047178
Al       8.75363765      19.47136235      12.04708310       0.00173780      -0.00173780      -0.01861859
Al       7.19966962      23.11303992       9.39106481       0.01388897      -0.02144817       0.00057370
Al       5.00000000      21.20000000      14.57497219       0.25414061      -0.69529558       0.03561047
Al       5.00000000      23.22500000      17.02139281       0.81227085      -0.81227085      -0.78755818
Al       7.02500000      21.20000000      17.02139281       0.34071566      -0.34071566      -0.86321648
Al       7.02500000      23.22500000      14.57497219       0.69529558      -0.25414061       0.03561047
Al       9.05000000       5.00000000       5.00000000      -0.03812599      -0.17563256      -0.36141384
Al       9.05000000       7.02500000       7.02500000       0.02887311       0.39971520       1.60202146
Al      11.07500000       5.00000000       7.02500000      -0.01375189      -0.15009550       1.52992481
Al      11.07500000       7.02500000       5.00000000      -0.01732472       0.33277395      -0.79954626
Al       9.04276920       5.04076926       9.47039043       0.00348056       0.00620519       0.00066345
Al       9.16344648       7.24372416      12.08675711       0.00226158       0.00307907      -0.00204369
Al      11.03267084       5.12389633      12.02803580      -0.00052684      -0.01514733      -0.00386728
Al      10.93179394       7.20673763       9.50634141       0.00168670       0.00927183      -0.00364075
Al       9.05000000       5.00000000      14.57497219       0.10963520       0.17829559      -0.04327799
Al       9.05000000       7.02500000      17.02139281      -0.04204132       0.34867762      -0.81604315
Al      11.07500000       5.00000000      17.02139281      -0.02006984       0.16783087      -0.88853104
Al      11.07500000       7.02500000      14.57497219       0.00295173       0.39297305      -0.10303996
Al       9.05000000       9.05000000       5.00000000      -0.03937806      -0.02842031      -0.85892279
Al       9.05000000      11.07500000       7.02500000       0.03825403       0.07371920       1.60580443
Al      11.07500000       9.05000000       7.02500000       0.05279726       0.05176414       1.78632839
Al      11.07500000      11.07500000       5.00000000      -0.01590642      -0.00101540      -0.84937526
Al       9.21678244       9.44072402       9.53232416      -0.01391331       0.01516988      -0.01280381
Al       9.14803207      11.23422730      12.08681953      -0.00188366       0.02415803      -0.01027261
Al      11.12656408       9.22244386      12.04874284      -0.00236369       0.02351047      -0.00738352
Al      11.40810923      11.05278146       9.51822719      -0.01281938       0.00574293      -0.01012207
Al       9.05000000       9.05000000      14.57497219       0.03326195       0.10921943      -0.02432690
Al       9.05000000      11.07500000      17.02139281      -0.04248153      -0.00759866      -0.76475476
Al      11.07500000       9.05000000      17.02139281      -0.02008757      -0.03473657      -0.76095029
Al      11.07500000      11.07500000      14.57497219       0.09736288       0.02691225      -0.08749827
Al       9.05000000      13.10000000       5.00000000      -0.03765605       0.00728118      -0.84863500
Al       9.05000000      15.12500000       7.02500000       0.01490598      -0.05671784       1.66013383
Al      11.07500000      13.10000000       7.02500000       0.00982696      -0.02456390       1.69110169
Al      11.07500000      15.12500000       5.00000000      -0.01745516       0.01386953      -0.83050050
Al       9.24354929      12.93143657       9.50428859       0.01091499       0.00850581      -0.00439278
Al       9.32375951      14.93039065      12.03748865       0.00435006       0.00703466      -0.01465563
Al      11.37020399      12.97121235      12.03079192       0.00176774       0.01471305      -0.01217943
Al      11.00871051      15.18551572       9.45394877      -0.00936912       0.01846456      -0.00714135
Al       9.05000000      13.10000000      14.57497219       0.05316481       0.03301459      -0.06734914
Al       9.05000000      15.12500000      17.02139281      -0.04188758       0.01032711      -0.76295025
Al      11.07500000      13.10000000      17.02139281      -0.02082054       0.00235517      -0.76387156
Al      11.07500000      15.12500000      14.57497219      -0.01550584       0.03768516      -0.08186178
Al       9.05000000      17.15000000       5.00000000      -0.03603934       0.01920105      -0.83044527
Al       9.05000000      19.17500000       7.02500000      -0.01466668       0.01466668       1.53778357
Al      11.07500000      17.15000000       7.02500000      -0.03348052       0.03348052       1.61881125
Al      11.07500000      19.17500000       5.00000000      -0.01920105       0.03603934      -0.83044527
Al       9.05444417      17.17472327       9.44211330      -0.00056670       0.00427217      -0.00469233
Al      10.74660413      17.47839587      12.00700539       0.00043872      -0.00043872      -0.01604868
Al      12.73019972      15.49480028      11.99669009      -0.00636081       0.00636081      -0.00936285
Al      11.05027673      19.17055583       9.44211330      -0.00427217       0.00056670      -0.00469233
Al       9.05000000      17.15000000      14.57497219      -0.00726186       0.03332168      -0.05383804
Al       9.05000000      19.17500000      17.02139281      -0.04160092       0.04160092      -0.76335922
Al      11.07500000      17.15000000      17.02139281      -0.02000368       0.02000368      -0.76090716
Al      11.07500000      19.17500000      14.57497219      -0.03332168       0.00726186      -0.05383804
Al       9.05000000      21.20000000       5.00000000      -0.03905057      -0.33519549      -0.76821806
Al       9.05000000      23.22500000       7.02500000       0.19920277       0.16636281       1.32067269
Al      11.07500000      21.20000000       7.02500000       0.06467954      -0.40733793       1.63590885
Al      11.07500000      23.22500000       5.00000000      -0.01656579       0.16042503      -0.36281166
Al       9.08679691      21.09535813       9.45407207       0.00406638      -0.00743901      -0.00090940
Al       9.29311702      22.89243467      11.99621088       0.00336863      -0.00542474       0.00406175
Al      11.25879494      20.84576684      12.01699349       0.00422604      -0.00235992      -0.01056910
Al      11.19825797      23.00028405       9.47556296      -0.00081206      -0.02125791       0.00140323
Al       9.05000000      21.20000000      14.57497219      -0.01992405      -0.33796213      -0.05220956
Al       9.05000000      23.22500000      17.02139281      -0.03815935      -0.18801179      -0.88451116
Al      11.07500000      21.20000000      17.02139281      -0.01880640      -0.34930071      -0.81539734
Al      11.07500000      23.22500000      14.57497219       0.01438952      -0.23732180      -0.15458169
Al      13.10000000       5.00000000       5.00000000      -0.00922362      -0.17047765      -0.38548001
Al      13.10000000       7.02500000       7.02500000      -0.00771708       0.36510095       1.70345087
Al      15.12500000       5.00000000       7.02500000       0.04060753      -0.23269570       1.62297488
Al      15.12500000       7.02500000       5.00000000       0.00075807       0.33383999      -0.79470942
Al      13.04332130       5.24804710       9.52372927       0.00182500      -0.01063124      -0.00753808
Al      13.06223230       7.17795450      12.07359689      -0.01276422       0.00359546      -0.00671555
Al      15.15163703       5.20335971      12.02525591      -0.01673021      -0.02411453       0.00097365
Al      15.31341473       7.01696463       9.49044805      -0.00648392       0.00137507      -0.00634840
Al      13.10000000       5.00000000      14.57497219      -0.01500305       0.16353888      -0.29172025
Al      13.10000000       7.02500000      17.02139281      -0.00972977       0.34840885      -0.81331493
Al      15.12500000       5.00000000      17.02139281       0.00042562       0.16678351      -0.88363482
Al      15.12500000       7.02500000      14.57497219       0.05678756       0.36861242      -0.12838460
Al      13.10000000       9.05000000       5.00000000      -0.00737350      -0.03009288      -0.85470932
Al      13.10000000      11.07500000       7.02500000       0.03460709      -0.02741342       1.57694931
Al      15.12500000       9.05000000       7.02500000      -0.04272891      -0.00845114       1.67669312
Al      15.12500000      11.07500000       5.00000000      -0.00303724      -0.00391652      -0.84030081
Al      13.23146569       8.90373385       9.50468581      -0.00044282       0.00618102      -0.00780732
Al      13.36047384      10.96471777      12.05417997      -0.00625765       0.01313771      -0.01033030
Al      15.31597265       8.94534493      12.04254323      -0.00301917      -0.00541568      -0.01001719
Al      14.97875915      11.19660823       9.45563902      -0.01070376       0.01528601      -0.01251872
Al      13.10000000       9.05000000      14.57497219       0.05419201       0.00501531      -0.10058973
Al      13.10000000      11.07500000      17.02139281      -0.01164098      -0.00877133      -0.76194315
Al      15.12500000       9.05000000      17.02139281      -0.00203683      -0.03717134      -0.75768716
Al      15.12500000      11.07500000      14.57497219       0.00767452       0.03544786      -0.02817478
Al      13.10000000      13.10000000       5.00000000      -0.01051131       0.00824643      -0.82706632
Al      13.10000000      15.12500000       7.02500000      -0.11689434       0.11689434       1.56047053
Al      15.12500000      13.10000000       7.02500000      -0.08835282       0.08835282       1.61970715
Al      15.12500000      15.12500000       5.00000000      -0.00824643       0.01051131      -0.82706632
Al      13.03719538      13.25210845       9.44361912      -0.01571739       0.02143058      -0.01072463
Al      14.71800092      13.50699908      11.99926179       0.00050798      -0.00050798      -0.01069301
Al      14.97289155      15.18780462       9.44361912      -0.02143058       0.01571739      -0.01072463
Al      13.10000000      13.10000000      14.57497219      -0.00884163       0.04331170      -0.03735487
Al      13.10000000      15.12500000      17.02139281      -0.01195412       0.01195412      -0.76162355
Al      15.12500000      13.10000000      17.02139281      -0.00317544       0.00317544      -0.75947382
Al      15.12500000      15.12500000      14.57497219      -0.04331170       0.00884163      -0.03735487
Al      13.10000000      17.15000000       5.00000000      -0.01386953       0.01745516      -0.83050050
Al      13.10000000      19.17500000       7.02500000       0.05671784      -0.01490598       1.66013383
Al      15.12500000      17.15000000       7.02500000       0.02456390      -0.00982696       1.69110169
Al      15.12500000      19.17500000       5.00000000      -0.00728118       0.03765605      -0.84863500
Al      13.03948428      17.21628949       9.45394877      -0.01846456       0.00936912      -0.00714135
Al      13.29460935      18.90124049      12.03748865      -0.00703466      -0.00435006      -0.01465563
Al      15.25378765      16.85479601      12.03079192      -0.01471305      -0.00176774      -0.01217943
Al      15.29356343      18.98145071       9.50428859      -0.00850581      -0.01091499      -0.00439278
Al      13.10000000      17.15000000      14.57497219      -0.03768516       0.01550584      -0.08186178
Al      13.10000000      19.17500000      17.02139281      -0.01032711       0.04188758      -0.76295025
Al      15.12500000      17.15000000      17.02139281      -0.00235517       0.02082054      -0.76387156
Al      15.12500000      19.17500000      14.57497219      -0.03301459      -0.05316481      -0.06734914
Al      13.10000000      21.20000000       5.00000000      -0.01251462      -0.33582612      -0.78513756
Al      13.10000000      23.22500000       7.02500000       0.01735701       0.11774378       1.41680055
Al      15.12500000      21.20000000       7.02500000      -0.00259562      -0.37871547       1.77183626
Al      15.12500000      23.22500000       5.00000000      -0.00512750       0.16993279      -0.36232035
Al      13.23411995      20.95620671       9.51021924      -0.00181635      -0.01593872      -0.00730602
Al      13.02535943      23.10498787      12.04668813      -0.00086140      -0.00473022       0.00107797
Al      15.08730466      21.13304078      12.04809352      -0.01579389      -0.00219348      -0.00837066
Al      15.02769326      23.18571930       9.50596767      -0.01274353      -0.01176210       0.00013956
Al      13.10000000      21.20000000      14.57497219       0.01263325      -0.43942810      -0.16533662
Al      13.10000000      23.22500000      17.02139281      -0.01010798      -0.17452579      -0.89359604
Al      15.12500000      21.20000000      17.02139281      -0.00208570      -0.34894795      -0.81715229
Al      15.12500000      23.22500000      14.57497219      -0.02268366      -0.14283958      -0.27434482
Al      17.15000000       5.00000000       5.00000000       0.01819705      -0.18178437      -0.36791686
Al      17.15000000       7.02500000       7.02500000      -0.00243869       0.30398202       1.61017108
Al      19.17500000       5.00000000       7.02500000      -0.13000659      -0.16986709       1.18581477
Al      19.17500000       7.02500000       5.00000000       0.03632817       0.32979649      -0.78417463
Al      17.30994659       4.97559490       9.53263583      -0.00964735      -0.01702823      -0.00161147
Al      17.36090234       7.04464154      12.05273904      -0.01026649      -0.00503583      -0.00247286
Al      19.32920044       5.02700567      12.08475473       0.00318828      -0.00741561      -0.00611430
Al      18.97599212       7.26415473       9.44680711      -0.01341159       0.00035890      -0.01061280
Al      17.15000000       5.00000000      14.57497219       0.05906562       0.11972274      -0.27418502
Al      17.15000000       7.02500000      17.02139281       0.01013329       0.34646613      -0.80994317
Al      19.17500000       5.00000000      17.02139281       0.03592381       0.16371492      -0.89687393
Al      19.17500000       7.02500000      14.57497219       0.02539514       0.37381254       0.04649865
Al      17.15000000       9.05000000       5.00000000       0.00924983      -0.03263680      -0.84369505
Al      17.15000000      11.07500000       7.02500000      -0.13033987       0.13033987       1.58903399
Al      19.17500000       9.05000000       7.02500000      -0.14090335       0.14090335       1.50395177
Al      19.17500000      11.07500000       5.00000000       0.03263680      -0.00924983      -0.84369505
Al      16.99806504       9.23987815       9.45687404      -0.00884673       0.00152917      -0.01459866
Al      16.69650445      11.52849555      11.98519705      -0.01386792       0.01386792      -0.00766998
Al      18.65267960       9.57232040      11.98867231      -0.01886955       0.01886955      -0.00513812
Al      18.98512185      11.22693496       9.45687404      -0.00152917       0.00884673      -0.01459866
Al      17.15000000       9.05000000      14.57497219      -0.03871764       0.02478063      -0.01688494
Al      17.15000000      11.07500000      17.02139281       0.00942717      -0.00942717      -0.75209577
Al      19.17500000       9.05000000      17.02139281       0.03625013      -0.03625013      -0.74973906
Al      19.17500000      11.07500000      14.57497219      -0.02478063       0.03871764      -0.01688494
Al      17.15000000      13.10000000       5.00000000       0.00391652       0.00303724      -0.84030081
Al      17.15000000      15.12500000       7.02500000       0.02741342      -0.03460709       1.57694931
Al      19.17500000      13.10000000       7.02500000       0.00845114       0.04272891       1.67669312
Al      19.17500000      15.12500000       5.00000000       0.03009288       0.00737350      -0.85470932
Al      17.02839177      13.24624085       9.45563902      -0.01528601       0.01070376      -0.01251872
Al      17.26028223      14.86452616      12.05417997      -0.01313771       0.00625765      -0.01033030
Al      19.27965507      12.90902735      12.04254323       0.00541568       0.00301917      -0.01001719
Al      19.32126615      14.99353431       9.50468581      -0.00618102       0.00044282      -0.00780732
Al      17.15000000      13.10000000      14.57497219      -0.03544786      -0.00767452      -0.02817478
Al      17.15000000      15.12500000      17.02139281       0.00877133       0.01164098      -0.76194315
Al      19.17500000      13.10000000      17.02139281       0.03717134       0.00203683      -0.75768716
Al      19.17500000      15.12500000      14.57497219      -0.00501531      -0.05419201      -0.10058973
Al      17.15000000      17.15000000       5.00000000       0.00101540       0.01590642      -0.84937526
Al      17.15000000      19.17500000       7.02500000      -0.07371920      -0.03825403       1.60580443
Al      19.17500000      17.15000000       7.02500000      -0.05176414      -0.05279726       1.78632839
Al      19.17500000      19.17500000       5.00000000       0.02842031       0.03937806      -0.85892279
Al      17.17221854      16.81689077       9.51822719      -0.00574293       0.01281938      -0.01012207
Al      16.99077270      19.07696793      12.08681953      -0.02415803       0.00188366      -0.01027261
Al      19.00255614      17.09843592      12.04874284      -0.02351047       0.00236369      -0.00738352
Al      18.78427598      19.00821756       9.53232416      -0.01516988       0.01391331      -0.01280381
Al      17.15000000      17.15000000      14.57497219      -0.02691225      -0.09736288      -0.08749827
Al      17.15000000      19.17500000      17.02139281       0.00759866       0.04248153      -0.76475476
Al      19.17500000      17.15000000      17.02139281       0.03473657       0.02008757      -0.76095029
Al      19.17500000      19.17500000      14.57497219      -0.10921943      -0.03326195      -0.02432690
Al      17.15000000      21.20000000       5.00000000       0.00338347      -0.33146196      -0.79226086
Al      17.15000000      23.22500000       7.02500000      -0.02778129       0.23085615       1.55084309
Al      19.17500000      21.20000000       7.02500000      -0.08537983      -0.40926263       1.72672025
Al      19.17500000      23.22500000       5.00000000       0.03053330       0.16935751      -0.36720493
Al      17.07390734      21.20280949       9.49096746      -0.02463599      -0.00424938      -0.00414190
Al      17.13856848      23.16037914      12.02616325      -0.00943659       0.00050774      -0.00351012
Al      18.98842718      21.01317585      12.04736196      -0.01630573       0.00784801      -0.00824984
Al      19.21645917      23.11728937       9.48857128      -0.00871282      -0.00923619      -0.00305707
Al      17.15000000      21.20000000      14.57497219      -0.06246832      -0.33203491      -0.13481598
Al      17.15000000      23.22500000      17.02139281       0.01003812      -0.17066004      -0.89244988
Al      19.17500000      21.20000000      17.02139281       0.03432474      -0.34667656      -0.81532071
Al      19.17500000      23.22500000      14.57497219      -0.13306314      -0.18256466      -0.08968807
Al      21.20000000       5.00000000       5.00000000      -0.45584084      -0.07440559      -0.26847016
Al      21.20000000       7.02500000       7.02500000      -0.50927685       0.50927685       1.47128349
Al      23.22500000       5.00000000       7.02500000      -0.53615760       0.53615760       1.20685925
Al      23.22500000       7.02500000       5.00000000       0.07440559       0.45584084      -0.26847016
Al      20.91857688       5.23915082       9.43880261       0.00433633      -0.00665453      -0.01011930
Al      20.60172322       7.62327678      11.96797954       0.00639941      -0.00639941      -0.00006196
Al      22.53122967       5.69377033      11.95752204      -0.00129507       0.00129507      -0.00255929
Al      22.98584918       7.30642312       9.43880261       0.00665453      -0.00433633      -0.01011930
Al      21.20000000       5.00000000      14.57497219      -0.53111864       0.29972804       0.16870139
Al      21.20000000       7.02500000      17.02139281      -0.33935515       0.33935515      -0.84929428
Al      23.22500000       5.00000000      17.02139281      -0.78256073       0.78256073      -0.86534860
Al      23.22500000       7.02500000      14.57497219      -0.29972804       0.53111864       0.16870139
Al      21.20000000       9.05000000       5.00000000      -0.32979649      -0.03632817      -0.78417463
Al      21.20000000      11.07500000       7.02500000      -0.30398202       0.00243869       1.61017108
Al      23.22500000       9.05000000       7.02500000       0.16986709       0.13000659       1.18581477
Al      23.22500000      11.07500000       5.00000000       0.18178437      -0.01819705      -0.36791686
Al      20.96084527       9.24900788       9.44680711      -0.00035890       0.01341159      -0.01061280
Al      21.18035846      10.86409766      12.05273904       0.00503583       0.01026649      -0.00247286
Al      23.19799433       8.89579956      12.08475473       0.00741561      -0.00318828      -0.00611430
Al      23.24940510      10.91505341       9.53263583       0.01702823       0.00964735      -0.00161147
Al      21.20000000       9.05000000      14.57497219      -0.37381254      -0.02539514       0.04649865
Al      21.20000000      11.07500000      17.02139281      -0.34646613      -0.01013329      -0.80994317
Al      23.22500000       9.05000000      17.02139281      -0.16371492      -0.03592381      -0.89687393
Al      23.22500000      11.07500000      14.57497219      -0.11972274      -0.05906562      -0.27418502
Al      21.20000000      13.10000000       5.00000000      -0.33383999      -0.00075807      -0.79470942
Al      21.20000000      15.12500000       7.02500000      -0.36510095       0.00771708       1.70345087
Al      23.22500000      13.10000000       7.02500000       0.23269570      -0.04060753       1.62297488
Al      23.22500000      15.12500000       5.00000000       0.17047765       0.00922362      -0.38548001
Al      21.20803537      12.91158527       9.49044805      -0.00137507       0.00648392      -0.00634840
Al      21.04704550      15.16276770      12.07359689      -0.00359546       0.01276422      -0.00671555
Al      23.02164029      13.07336297      12.02525591       0.02411453       0.01673021       0.00097365
Al      22.97695290      15.18167870       9.52372927       0.01063124      -0.00182500      -0.00753808
Al      21.20000000      13.10000000      14.57497219      -0.36861242      -0.05678756      -0.12838460
Al      21.20000000      15.12500000      17.02139281      -0.34840885       0.00972977      -0.81331493
Al      23.22500000      13.10000000      17.02139281      -0.16678351      -0.00042562      -0.88363482
Al      23.22500000      15.12500000      14.57497219      -0.16353888       0.01500305      -0.29172025
Al      21.20000000      17.15000000       5.00000000      -0.33277395       0.01732472      -0.79954626
Al      21.20000000      19.17500000       7.02500000      -0.39971520      -0.02887311       1.60202146
Al      23.22500000      17.15000000       7.02500000       0.15009550       0.01375189       1.52992481
Al      23.22500000      19.17500000       5.00000000       0.17563256       0.03812599      -0.36141384
Al      21.01826237      17.29320606       9.50634141      -0.00927183      -0.00168670      -0.00364075
Al      20.98127584      19.06155352      12.08675711      -0.00307907      -0.00226158      -0.00204369
Al      23.10110367      17.19232916      12.02803580       0.01514733       0.00052684      -0.00386728
Al      23.18423074      19.18223080       9.47039043      -0.00620519      -0.00348056       0.00066345
Al      21.20000000      17.15000000      14.57497219      -0.39297305      -0.00295173      -0.10303996