299
Lattice="28.224999999999998 0.0 0.0 0.0 28.224999999999998 0.0 0.0 0.0 20.125" Properties=species:S:1:pos:R:3:forces:R:3 energy=-16468.969094802134 pbc="T T T"
Al       5.00000000       5.00000000       5.00000000       0.32500773       0.32531974       0.28121244
Al       5.00000000       7.02500000       7.02500000      -0.40061082       0.30778824       0.65402003
Al       7.02500000       5.00000000       7.02500000       0.30204119      -0.39888363       0.65050529
Al       7.02500000       7.02500000       5.00000000       0.32866285       0.32814029      -0.61146639
Al       5.03031080       5.03165489       9.16773676       0.02295295       0.02539733       0.00302854
Al       4.93072909       7.07005438      11.27821479       0.01736212       0.01649302      -0.00697451
Al       7.06525198       4.92007768      11.27886597       0.01488441       0.01334018      -0.00617771
Al       7.05773399       7.05703197       9.16891988       0.02953821       0.02748629      -0.01692505
Al       5.00000000       5.00000000      13.38778092       0.18756210       0.19637483      -0.51396382
Al       5.00000000       7.02500000      15.49500404       0.00347678       0.46035070      -0.20397929
Al       7.02500000       5.00000000      15.49500404       0.46089913       0.00339099      -0.20511756
Al       7.02500000       7.02500000      13.38778092       0.23545313       0.23952330      -0.47803006
Al       5.00000000       9.05000000       5.00000000      -0.20071350      -0.03222730      -0.21031208
Al       5.00000000      11.07500000       7.02500000      -0.51689330      -0.01604463       0.60054247
Al       7.02500000       9.05000000       7.02500000       0.17316705      -0.00619499       0.82862018
Al       7.02500000      11.07500000       5.00000000       0.33501496      -0.01344558      -0.66554351
Al       4.86851815       9.04403932       9.12754321       0.01447785       0.00436082      -0.00366027
Al       4.84057283      11.06186959      11.27635693       0.01625292      -0.00071582      -0.01478606
Al       7.02532476       9.07649917      11.25779481       0.02975407       0.01478214      -0.00460278
Al       6.99437301      11.07750467       9.16068592       0.02340822       0.00177235      -0.01311955
Al       5.00000000       9.05000000      13.38778092      -0.39738039       0.01394554      -0.21639118
Al       5.00000000      11.07500000      15.49500404      -0.10558490      -0.01523060      -0.10857087
Al       7.02500000       9.05000000      15.49500404       0.33232694      -0.03703842       0.26577466
Al       7.02500000      11.07500000      13.38778092       0.15294187       0.01318682      -0.43768271
Al       5.00000000      13.10000000       5.00000000      -0.20593515      -0.00497969      -0.21148226
Al       5.00000000      15.12500000       7.02500000      -0.54092302       0.01436322       0.60792201
Al       7.02500000      13.10000000       7.02500000       0.14244926      -0.00329253       0.87726324
Al       7.02500000      15.12500000       5.00000000       0.33486434       0.00241692      -0.66618338
Al       4.83939696      13.09557547       9.13333492       0.01487041      -0.00182100      -0.00260451
Al       4.84087834      15.12817061      11.27677503       0.01705812      -0.00117765      -0.01444999
Al       6.97243496      13.09271387      11.24919090       0.02365907      -0.00313382      -0.00435958
Al       6.97689625      15.12831623       9.15919882       0.02012083      -0.00283063      -0.01422010
Al       5.00000000      13.10000000      13.38778092      -0.44526621      -0.01674060      -0.28207203
Al       5.00000000      15.12500000      15.49500404      -0.10634781       0.00330001      -0.10774972
Al       7.02500000      13.10000000      15.49500404       0.33406986      -0.00503835       0.26655091
Al       7.02500000      15.12500000      13.38778092       0.08418556       0.00226342      -0.41781257
Al       5.00000000      17.15000000       5.00000000      -0.20600381       0.01270619      -0.21167145
Al       5.00000000      19.17500000       7.02500000      -0.49502055      -0.01095911       0.54639276
Al       7.02500000      17.15000000       7.02500000       0.15082185      -0.00681261       0.85326752
Al       7.02500000      19.17500000       5.00000000       0.33260660       0.03355357      -0.66547005
Al       4.84264989      17.16281994       9.13428144       0.01153709      -0.00207462      -0.00243397
Al       4.85783000      19.18484953      11.28537577       0.01126752      -0.00375901      -0.01242353
Al       6.97901001      17.15841126      11.25166915       0.02213413      -0.00274763      -0.00249100
Al       7.02048989      19.15651668       9.15672295       0.02339989      -0.01335722      -0.01585701
Al       5.00000000      17.15000000      13.38778092      -0.43983926       0.01245845      -0.26081805
Al       5.00000000      19.17500000      15.49500404      -0.10281380       0.03390736      -0.10937323
Al       7.02500000      17.15000000      15.49500404       0.33355265       0.01167537       0.26659573
Al       7.02500000      19.17500000      13.38778092       0.18769387       0.00489310      -0.42244378
Al       5.00000000      21.20000000       5.00000000      -0.10105037      -0.45577892      -0.12170533
Al       5.00000000      23.22500000       7.02500000       0.07750114      -0.07750114       0.74413619
Al       7.02500000      21.20000000       7.02500000       0.24147020      -0.24147020       0.88813323
Al       7.02500000      23.22500000       5.00000000       0.45577892       0.10105037      -0.12170533
Al       4.92965462      21.15696252       9.13599371       0.00910195      -0.01640425      -0.01432793
Al       5.03502115      23.18997885      11.24833994       0.02645347      -0.02645347      -0.02330361
Al       7.06818045      21.15681955      11.24629697       0.03102092      -0.03102092      -0.00157189
Al       7.06803748      23.29534538       9.13599371       0.01640425      -0.00910195      -0.01432793
Al       5.00000000      21.20000000      13.38778092      -0.29861924      -0.31121239      -0.31733763
Al       5.00000000      23.22500000      15.49500404       0.44265954      -0.44265954      -0.50941897
Al       7.02500000      21.20000000      15.49500404       0.32634471      -0.32634471       0.21603338
Al       7.02500000      23.22500000      13.38778092       0.31121239       0.29861924      -0.31733763
Al       9.05000000       5.00000000       5.00000000      -0.03085053      -0.20045807      -0.20916282
Al       9.05000000       7.02500000       7.02500000      -0.01401284       0.16934234       0.82677455
Al      11.07500000       5.00000000       7.02500000      -0.01282158      -0.52835961       0.59197990
Al      11.07500000       7.02500000       5.00000000      -0.01061410       0.33494482      -0.66344858
Al       9.04088285       4.86020906       9.12668186       0.00524413       0.01458882      -0.00387491
Al       9.05990908       7.00867236      11.25715044       0.01232106       0.02464190      -0.00544433
Al      11.06359756       4.84370859      11.27662032       0.00180033       0.02064738      -0.01536476
Al      11.06862373       6.98411066       9.15839459       0.00457327       0.02304087      -0.01206813
Al       9.05000000       5.00000000      13.38778092       0.01357105      -0.41104329      -0.20707573
Al       9.05000000       7.02500000      15.49500404      -0.03534248       0.33169220       0.26442967
Al      11.07500000       5.00000000      15.49500404      -0.01341354      -0.10433733      -0.10924186
Al      11.07500000       7.02500000      13.38778092       0.00530178       0.11767357      -0.41385251
Al       9.05000000       9.05000000       5.00000000      -0.03197423      -0.03365713      -0.72401497
Al       9.05000000      11.07500000       7.02500000      -0.04731695       0.02598933       0.75744187
Al      11.07500000       9.05000000       7.02500000      -0.00041287      -0.05160431       0.74879153
Al      11.07500000      11.07500000       5.00000000      -0.00967426      -0.01231774      -0.72207764
Al       9.06523317       9.06784840       9.14698247       0.01786073       0.01494020      -0.01109998
Al       9.07661658      11.11384675      11.26829998       0.02621784       0.01517729      -0.00793570
Al      11.07404160       9.03437450      11.26540096       0.00916235       0.01336646      -0.00800438
Al      11.08781374      11.09163695       9.15553530       0.01192990       0.00844257      -0.00310837
Al       9.05000000       9.05000000      13.38778092      -0.04280847      -0.02432341      -0.33889556
Al       9.05000000      11.07500000      15.49500404      -0.03506606      -0.01410710       0.32492647
Al      11.07500000       9.05000000      15.49500404      -0.01153470      -0.03658171       0.32247374
Al      11.07500000      11.07500000      13.38778092       0.00908007       0.04274767      -0.34367796
Al       9.05000000      13.10000000       5.00000000      -0.03102196      -0.00492966      -0.72573581
Al       9.05000000      15.12500000       7.02500000      -0.03969587      -0.00110844       0.78093318
Al      11.07500000      13.10000000       7.02500000      -0.00893594       0.01063871       0.70119474
Al      11.07500000      15.12500000       5.00000000      -0.00685737       0.00157389      -0.71956487
Al       9.04704406      13.11164035       9.15543361       0.01391325      -0.00141288      -0.00722987
Al       9.00804857      15.12573835      11.26822283       0.01170397      -0.00460250      -0.00830370
Al      11.16937666      13.20058865      11.27840216       0.02420468       0.01532269      -0.01752881
Al      11.10051020      15.12486328       9.16056214       0.00797062      -0.00655716      -0.01764942
Al       9.05000000      13.10000000      13.38778092      -0.02702469       0.02530198      -0.37475733
Al       9.05000000      15.12500000      15.49500404      -0.03433555       0.00287743       0.32213314
Al      11.07500000      13.10000000      15.49500404      -0.01728399      -0.01125547       0.33402604
Al      11.07500000      15.12500000      13.38778092       0.22838803       0.00263111      -0.29230863
Al       9.05000000      17.15000000       5.00000000      -0.03188834       0.01068362      -0.72569388
Al       9.05000000      19.17500000       7.02500000      -0.02037240       0.02037240       0.76385497
Al      11.07500000      17.15000000       7.02500000       0.00073003      -0.00073003       0.69994342
Al      11.07500000      19.17500000       5.00000000      -0.01068362       0.03188834      -0.72569388
Al       9.05728671      17.13478003       9.15431398       0.01720084      -0.00994384      -0.00847334
Al       9.09557725      19.12942275      11.26858586       0.02547435      -0.02547435      -0.00249974
Al      11.17757189      17.04742811      11.27779716       0.02704876      -0.02704876      -0.01580908
Al      11.09021997      19.16771329       9.15431398       0.00994384      -0.01720084      -0.00847334
Al       9.05000000      17.15000000      13.38778092      -0.01387200      -0.02764055      -0.36236081
Al       9.05000000      19.17500000      15.49500404      -0.03500565       0.03500565       0.32740640
Al      11.07500000      17.15000000      15.49500404      -0.01759886       0.01759886       0.33507996
Al      11.07500000      19.17500000      13.38778092       0.02764055       0.01387200      -0.36236081
Al       9.05000000      21.20000000       5.00000000      -0.03355357      -0.33260660      -0.66547005
Al       9.05000000      23.22500000       7.02500000       0.01095911       0.49502055       0.54639276
Al      11.07500000      21.20000000       7.02500000       0.00681261      -0.15082185       0.85326752
Al      11.07500000      23.22500000       5.00000000      -0.01270619       0.20600381      -0.21167145
Al       9.06848332      21.20451011       9.15672295       0.01335722      -0.02339989      -0.01585701
Al       9.04015047      23.36717000      11.28537577       0.00375901      -0.01126752      -0.01242353
Al      11.06658874      21.24598999      11.25166915       0.00274763      -0.02213413      -0.00249100
Al      11.06218006      23.38235011       9.13428144       0.00207462      -0.01153709      -0.00243397
Al       9.05000000      21.20000000      13.38778092      -0.00489310      -0.18769387      -0.42244378
Al       9.05000000      23.22500000      15.49500404      -0.03390736       0.10281380      -0.10937323
Al      11.07500000      21.20000000      15.49500404      -0.01167537      -0.33355265       0.26659573
Al      11.07500000      23.22500000      13.38778092      -0.01245845       0.43983926      -0.26081805
Al      13.10000000       5.00000000       5.00000000      -0.00279157      -0.20376882      -0.21060556
Al      13.10000000       7.02500000       7.02500000      -0.00213694       0.10740320       0.84848024
Al      15.12500000       5.00000000       7.02500000       0.01699699      -0.53394590       0.61193757
Al      15.12500000       7.02500000       5.00000000       0.00497530       0.33591420      -0.66352652
Al      13.09679960       4.84209427       9.13435092       0.00134325       0.02047087      -0.00253493
Al      13.09680763       6.97897864      11.24999630       0.00276006       0.02440250      -0.00933050
Al      15.12834111       4.84069332      11.27747315       0.00198061       0.02431613      -0.01581642
Al      15.12999026       6.97747342       9.16077200       0.00218793       0.02432378      -0.01057905
Al      13.10000000       5.00000000      13.38778092      -0.01375794      -0.43649110      -0.28659433
Al      13.10000000       7.02500000      15.49500404      -0.00285127       0.33384280       0.26526127
Al      15.12500000       5.00000000      15.49500404       0.00532845      -0.10444973      -0.10951865
Al      15.12500000       7.02500000      13.38778092       0.00656691       0.10795600      -0.43839744
Al      13.10000000       9.05000000       5.00000000      -0.00182112      -0.03319734      -0.72229132
Al      13.10000000      11.07500000       7.02500000      -0.00386983       0.02062720       0.75020439
Al      15.12500000       9.05000000       7.02500000       0.00178910      -0.06433493       0.75874319
Al      15.12500000      11.07500000       5.00000000       0.00474960      -0.01161312      -0.72105072
Al      13.09906794       9.02739234       9.14349831       0.00488602       0.00935332      -0.00675008
Al      13.10093309      11.04559216      11.26887732       0.00697555       0.00242061      -0.01372729
Al      15.13021440       9.02352863      11.26444094       0.00180989       0.01113353      -0.01056202
Al      15.11197464      11.08506818       9.15534816      -0.00004728       0.00628739      -0.00187158
Al      13.10000000       9.05000000      13.38778092       0.00163236      -0.12378977      -0.29902066
Al      13.10000000      11.07500000      15.49500404      -0.00265182      -0.01306379       0.31726584
Al      15.12500000       9.05000000      15.49500404       0.00519709      -0.03626194       0.32215971
Al      15.12500000      11.07500000      13.38778092      -0.01927377       0.03155472      -0.34283792
Al      13.10000000      13.10000000       5.00000000      -0.00111917      -0.00211310      -0.71767968
Al      13.10000000      15.12500000       7.02500000      -0.00752098       0.00752098       0.48287435
Al      15.12500000      13.10000000       7.02500000      -0.00818628       0.00818628       0.69778466
Al      15.12500000      15.12500000       5.00000000       0.00211310       0.00111917      -0.71767968
Al      13.09862695      13.13220168       9.16184482       0.00630971      -0.00288443      -0.01489820
Al      15.02463791      13.20036209      11.27870520      -0.01455661       0.01455661      -0.01965412
Al      15.09279832      15.12637305       9.16184482       0.00288443      -0.00630971      -0.01489820
Al      13.10000000      13.10000000      13.38778092      -0.01168052       0.24358179      -0.29234637
Al      13.10000000      15.12500000      15.49500404      -0.00257731       0.00257731       0.44464652
Al      15.12500000      13.10000000      15.49500404       0.01117130      -0.01117130       0.33221872
Al      15.12500000      15.12500000      13.38778092      -0.24358179       0.01168052      -0.29234637
Al      13.10000000      17.15000000       5.00000000      -0.00157389       0.00685737      -0.71956487
Al      13.10000000      19.17500000       7.02500000       0.00110844       0.03969587       0.78093318
Al      15.12500000      17.15000000       7.02500000      -0.01063871       0.00893594       0.70119474
Al      15.12500000      19.17500000       5.00000000       0.00492966       0.03102196      -0.72573581
Al      13.10013672      17.12448980       9.16056214       0.00655716      -0.00797062      -0.01764942
Al      13.09926165      19.21695143      11.26822283       0.00460250      -0.01170397      -0.00830370
Al      15.02441135      17.05562334      11.27840216      -0.01532269      -0.02420468      -0.01752881
Al      15.11335965      19.17795594       9.15543361       0.00141288      -0.01391325      -0.00722987
Al      13.10000000      17.15000000      13.38778092      -0.00263111      -0.22838803      -0.29230863
Al      13.10000000      19.17500000      15.49500404      -0.00287743       0.03433555       0.32213314
Al      15.12500000      17.15000000      15.49500404       0.01125547       0.01728399       0.33402604
Al      15.12500000      19.17500000      13.38778092      -0.02530198       0.02702469      -0.37475733
Al      13.10000000      21.20000000       5.00000000      -0.00241692      -0.33486434      -0.66618338
Al      13.10000000      23.22500000       7.02500000      -0.01436322       0.54092302       0.60792201
Al      15.12500000      21.20000000       7.02500000       0.00329253      -0.14244926       0.87726324
Al      15.12500000      23.22500000       5.00000000       0.00497969       0.20593515      -0.21148226
Al      13.09668377      21.24810375       9.15919882       0.00283063      -0.02012083      -0.01422010
Al      13.09682939      23.38412166      11.27677503       0.00117765      -0.01705812      -0.01444999
Al      15.13228613      21.25256504      11.24919090       0.00313382      -0.02365907      -0.00435958
Al      15.12942453      23.38560304       9.13333492       0.00182100      -0.01487041      -0.00260451
Al      13.10000000      21.20000000      13.38778092      -0.00226342      -0.08418556      -0.41781257
Al      13.10000000      23.22500000      15.49500404      -0.00330001       0.10634781      -0.10774972
Al      15.12500000      21.20000000      15.49500404       0.00503835      -0.33406986       0.26655091
Al      15.12500000      23.22500000      13.38778092       0.01674060       0.44526621      -0.28207203
Al      17.15000000       5.00000000       5.00000000       0.01418540      -0.20279157      -0.20974498
Al      17.15000000       7.02500000       7.02500000      -0.00224382       0.13437415       0.83996628
Al      19.17500000       5.00000000       7.02500000      -0.00925302      -0.49695914       0.54529544
Al      19.17500000       7.02500000       5.00000000       0.03374663       0.33423681      -0.66160254
Al      17.16248452       4.84306355       9.13489562       0.00027773       0.01993009      -0.00136406
Al      17.15682132       6.98235895      11.25229008      -0.00065003       0.02589439      -0.00874947
Al      19.18409883       4.85950760      11.28558924      -0.00288129       0.02099898      -0.01463325
Al      19.16058866       7.01499535       9.15546544      -0.01274689       0.02760284      -0.01206190
Al      17.15000000       5.00000000      13.38778092       0.01501427      -0.43300349      -0.26357288
Al      17.15000000       7.02500000      15.49500404       0.01382666       0.33368438       0.26419202
Al      19.17500000       5.00000000      15.49500404       0.03436612      -0.09972847      -0.11182163
Al      19.17500000       7.02500000      13.38778092       0.01327997       0.17111678      -0.41387582
Al      17.15000000       9.05000000       5.00000000       0.01318002      -0.03323527      -0.72182785
Al      17.15000000      11.07500000       7.02500000      -0.00942928       0.00942928       0.73507165
Al      19.17500000       9.05000000       7.02500000       0.04039494      -0.04039494       0.74605343
Al      19.17500000      11.07500000       5.00000000       0.03323527      -0.01318002      -0.72182785
Al      17.14077779       9.04938569       9.14711222      -0.00709941       0.01580029      -0.00543285
Al      17.11359673      11.11140327      11.26782181      -0.01752916       0.01752916      -0.01411510
Al      19.15206792       9.07293208      11.26666834      -0.01850778       0.01850778      -0.00832328
Al      19.17561431      11.08422221       9.14711222      -0.01580029       0.00709941      -0.00543285
Al      17.15000000       9.05000000      13.38778092      -0.00451833      -0.05261500      -0.33244199
Al      17.15000000      11.07500000      15.49500404       0.01392736      -0.01392736       0.32075091
Al      19.17500000       9.05000000      15.49500404       0.03616321      -0.03616321       0.32382094
Al      19.17500000      11.07500000      13.38778092       0.05261500       0.00451833      -0.33244199
Al      17.15000000      13.10000000       5.00000000       0.01161312      -0.00474960      -0.72105072
Al      17.15000000      15.12500000       7.02500000      -0.02062720       0.00386983       0.75020439
Al      19.17500000      13.10000000       7.02500000       0.06433493      -0.00178910       0.75874319
Al      19.17500000      15.12500000       5.00000000       0.03319734       0.00182112      -0.72229132
Al      17.13993182      13.11302536       9.15534816      -0.00628739       0.00004728      -0.00187158
Al      17.17940784      15.12406691      11.26887732      -0.00242061      -0.00697555      -0.01372729
Al      19.20147137      13.09478560      11.26444094      -0.01113353      -0.00180989      -0.01056202
Al      19.19760766      15.12593206       9.14349831      -0.00935332      -0.00488602      -0.00675008
Al      17.15000000      13.10000000      13.38778092      -0.03155472       0.01927377      -0.34283792
Al      17.15000000      15.12500000      15.49500404       0.01306379       0.00265182       0.31726584
Al      19.17500000      13.10000000      15.49500404       0.03626194      -0.00519709       0.32215971
Al      19.17500000      15.12500000      13.38778092       0.12378977      -0.00163236      -0.29902066
Al      17.15000000      17.15000000       5.00000000       0.01231774       0.00967426      -0.72207764
Al      17.15000000      19.17500000       7.02500000      -0.02598933       0.04731695       0.75744187
Al      19.17500000      17.15000000       7.02500000       0.05160431       0.00041287       0.74879153
Al      19.17500000      19.17500000       5.00000000       0.03365713       0.03197423      -0.72401497
Al      17.13336305      17.13718626       9.15553530      -0.00844257      -0.01192990      -0.00310837
Al      17.11115325      19.14838342      11.26829998      -0.01517729      -0.02621784      -0.00793570
Al      19.19062550      17.15095840      11.26540096      -0.01336646      -0.00916235      -0.00800438
Al      19.15715160      19.15976683       9.14698247      -0.01494020      -0.01786073      -0.01109998
Al      17.15000000      17.15000000      13.38778092      -0.04274767      -0.00908007      -0.34367796
Al      17.15000000      19.17500000      15.49500404       0.01410710       0.03506606       0.32492647
Al      19.17500000      17.15000000      15.49500404       0.03658171       0.01153470       0.32247374
Al      19.17500000      19.17500000      13.38778092       0.02432341       0.04280847      -0.33889556
Al      17.15000000      21.20000000       5.00000000       0.01344558      -0.33501496      -0.66554351
Al      17.15000000      23.22500000       7.02500000       0.01604463       0.51689330       0.60054247
Al      19.17500000      21.20000000       7.02500000       0.00619499      -0.17316705       0.82862018
Al      19.17500000      23.22500000       5.00000000       0.03222730       0.20071350      -0.21031208
Al      17.14749533      21.23062699       9.16068592      -0.00177235      -0.02340822      -0.01311955
Al      17.16313041      23.38442717      11.27635693       0.00071582      -0.01625292      -0.01478606
Al      19.14850083      21.19967524      11.25779481      -0.01478214      -0.02975407      -0.00460278
Al      19.18096068      23.35648185       9.12754321      -0.00436082      -0.01447785      -0.00366027
Al      17.15000000      21.20000000      13.38778092      -0.01318682      -0.15294187      -0.43768271
Al      17.15000000      23.22500000      15.49500404       0.01523060       0.10558490      -0.10857087
Al      19.17500000      21.20000000      15.49500404       0.03703842      -0.33232694       0.26577466
Al      19.17500000      23.22500000      13.38778092      -0.01394554       0.39738039      -0.21639118
Al      21.20000000       5.00000000       5.00000000      -0.45695426      -0.09814643      -0.11926577
Al      21.20000000       7.02500000       7.02500000      -0.23450343       0.23450343       0.88958850
Al      23.22500000       5.00000000       7.02500000      -0.07855314       0.07855314       0.73881260
Al      23.22500000       7.02500000       5.00000000       0.09814643       0.45695426      -0.11926577
Al      21.15941157       4.92543393       9.13594406      -0.01794583       0.01817179      -0.01301453
Al      21.16618249       7.05881751      11.24582730      -0.03202278       0.03202278      -0.00676819
Al      23.19450184       5.03049816      11.24952718      -0.02992959       0.02992959      -0.02270758
Al      23.29956607       7.06558843       9.13594406      -0.01817179       0.01794583      -0.01301453
Al      21.20000000       5.00000000      13.38778092      -0.31016075      -0.30156592      -0.31628184
Al      21.20000000       7.02500000      15.49500404      -0.32733031       0.32733031       0.21230428
Al      23.22500000       5.00000000      15.49500404      -0.44488178       0.44488178      -0.51163098
Al      23.22500000       7.02500000      13.38778092       0.30156592       0.31016075      -0.31628184
Al      21.20000000       9.05000000       5.00000000      -0.33423681      -0.03374663      -0.66160254
Al      21.20000000      11.07500000       7.02500000      -0.13437415       0.00224382       0.83996628
Al      23.22500000       9.05000000       7.02500000       0.49695914       0.00925302       0.54529544
Al      23.22500000      11.07500000       5.00000000       0.20279157      -0.01418540      -0.20974498
Al      21.21000465       9.06441134       9.15546544      -0.02760284       0.01274689      -0.01206190
Al      21.24264105      11.06817868      11.25229008      -0.02589439       0.00065003      -0.00874947
Al      23.36549240       9.04090117      11.28558924      -0.02099898       0.00288129      -0.01463325
Al      23.38193645      11.06251548       9.13489562      -0.01993009      -0.00027773      -0.00136406
Al      21.20000000       9.05000000      13.38778092      -0.17111678      -0.01327997      -0.41387582
Al      21.20000000      11.07500000      15.49500404      -0.33368438      -0.01382666       0.26419202
Al      23.22500000       9.05000000      15.49500404       0.09972847      -0.03436612      -0.11182163
Al      23.22500000      11.07500000      13.38778092       0.43300349      -0.01501427      -0.26357288
Al      21.20000000      13.10000000       5.00000000      -0.33591420      -0.00497530      -0.66352652
Al      21.20000000      15.12500000       7.02500000      -0.10740320       0.00213694       0.84848024
Al      23.22500000      13.10000000       7.02500000       0.53394590      -0.01699699       0.61193757
Al      23.22500000      15.12500000       5.00000000       0.20376882       0.00279157      -0.21060556
Al      21.24752658      13.09500974       9.16077200      -0.02432378      -0.00218793      -0.01057905
Al      21.24602136      15.12819237      11.24999630      -0.02440250      -0.00276006      -0.00933050
Al      23.38430668      13.09665889      11.27747315      -0.02431613      -0.00198061      -0.01581642
Al      23.38290573      15.12820040       9.13435092      -0.02047087      -0.00134325      -0.00253493
Al      21.20000000      13.10000000      13.38778092      -0.10795600      -0.00656691      -0.43839744
Al      21.20000000      15.12500000      15.49500404      -0.33384280       0.00285127       0.26526127
Al      23.22500000      13.10000000      15.49500404       0.10444973      -0.00532845      -0.10951865
Al      23.22500000      15.12500000      13.38778092       0.43649110       0.01375794      -0.28659433
Al      21.20000000      17.15000000       5.00000000      -0.33494482       0.01061410      -0.66344858
Al      21.20000000      19.17500000       7.02500000      -0.16934234       0.01401284       0.82677455
Al      23.22500000      17.15000000       7.02500000       0.52835961       0.01282158       0.59197990
Al      23.22500000      19.17500000       5.00000000       0.20045807       0.03085053      -0.20916282
Al      21.24088934      17.15637627       9.15839459      -0.02304087      -0.00457327      -0.01206813
Al      21.21632764      19.16509092      11.25715044      -0.02464190      -0.01232106      -0.00544433
Al      23.38129141      17.16140244      11.27662032      -0.02064738      -0.00180033      -0.01536476
Al      23.36479094      19.18411715       9.12668186      -0.01458882      -0.00524413      -0.00387491
Al      21.20000000      17.15000000      13.38778092      -0.11767357      -0.00530178      -0.41385251