299
Lattice="28.224999999999998 0.0 0.0 0.0 28.224999999999998 0.0 0.0 0.0 20.125" Properties=species:S:1:pos:R:3:forces:R:3 energy=-16369.739776858381 pbc="T T T"
Al       5.00000000       5.00000000       5.00000000       0.42776762       0.42665739      -0.27270560
Al       5.00000000       7.02500000       7.02500000      -0.32322808       0.55388892       0.61646951
Al       7.02500000       5.00000000       7.02500000       0.70081706      -0.19550177       0.95794558
Al       7.02500000       7.02500000       5.00000000       0.33789400       0.32894488      -0.84464375
Al       6.97126183       7.07928728       9.12035984       0.00396037      -0.00154464      -0.00196328
Al       6.00279576       7.70904865      13.44934235      -0.02433227      -0.02956774      -0.02767487
Al       7.94676785       6.32950562      11.66604584       0.01819417      -0.02277059      -0.00138696
Al       9.94648913       8.50251364      11.55727962       0.05581899      -0.01731748      -0.03869574
Al       5.00000000       5.00000000      15.95326439       1.05718805       1.21219125       0.51908442
Al       5.00000000       7.02500000      18.79348279       0.35635144       0.48972825      -1.25814339
Al       7.02500000       5.00000000      18.79348279       0.49417743       0.36062100      -1.23688530
Al       7.02500000       7.02500000      15.95326439       0.63420009       0.36670222       1.57093720
Al       5.00000000       9.05000000       5.00000000      -0.11989940      -0.03949065      -0.66146784
Al       5.00000000      11.07500000       7.02500000      -0.58886505      -0.01057458       0.78405317
Al       7.02500000       9.05000000       7.02500000       0.06403523      -0.27962552       0.34208729
Al       7.02500000      11.07500000       5.00000000       0.35050547      -0.02095915      -0.84870177
Al       6.78374292       9.23536610      11.07014921      -0.00298536      -0.01230634       0.00185515
Al       5.57201829      11.17303322      13.36220505      -0.00266006      -0.00151328      -0.02965440
Al       8.02590309       9.72458003      13.51740569      -0.00365240      -0.02971253       0.02965256
Al       7.00627849      11.01878664       8.97727595      -0.01581962       0.00008001       0.00874262
Al       5.00000000       9.05000000      15.95326439       0.38147562       0.24477126       0.61599556
Al       5.00000000      11.07500000      18.79348279       0.24369605      -0.01264001      -1.18517471
Al       7.02500000       9.05000000      18.79348279       0.35896856      -0.04364914      -1.26135012
Al       7.02500000      11.07500000      15.95326439       0.47569724       0.07571691       1.12877187
Al       5.00000000      13.10000000       5.00000000      -0.13599778      -0.01386193      -0.68908416
Al       5.00000000      15.12500000       7.02500000      -0.10453260      -0.07169890       1.10839818
Al       7.02500000      13.10000000       7.02500000      -0.07226714       0.50528412       1.03470078
Al       7.02500000      15.12500000       5.00000000       0.34492123       0.01095454      -0.94796760
Al       6.52841658      12.85472713      10.93445854      -0.01082481       0.01739555      -0.02840924
Al       6.21319299      14.68360118      13.17120016       0.01595861       0.03041681       0.00655937
Al       8.14499111      12.59361159      13.44081792       0.03122889       0.02752333      -0.00001031
Al       9.03852088      14.62354534      11.30692300       0.06586414      -0.00718933       0.00387008
Al       5.00000000      13.10000000      15.95326439       0.51452873       0.00266793       0.27169406
Al       5.00000000      15.12500000      18.79348279       0.25549410       0.01470454      -1.17254087
Al       7.02500000      13.10000000      18.79348279       0.36170337       0.00307504      -1.25732422
Al       7.02500000      15.12500000      15.95326439       0.47513957      -0.08418138       1.15291633
Al       5.00000000      17.15000000       5.00000000      -0.13850893       0.02182605      -0.69297822
Al       5.00000000      19.17500000       7.02500000      -0.06983777      -0.05760343       0.92893797
Al       7.02500000      17.15000000       7.02500000       0.28326913       0.01298361       0.91229386
Al       7.02500000      19.17500000       5.00000000       0.33559465       0.04042917      -0.94501639
Al       6.88212460      15.40905009       9.44164879      -0.01309322       0.05023052       0.04429069
Al       6.91516283      17.42974471      13.76637620      -0.00068986      -0.00572640       0.00600858
Al       9.10008238      15.45007463      13.82222907       0.03003091      -0.00491033       0.01934055
Al       8.46786256      17.55344958      11.50653262       0.04269774      -0.02423991       0.04438149
Al       5.00000000      17.15000000      15.95326439       0.15154339      -0.21307115       0.97447913
Al       5.00000000      19.17500000      18.79348279       0.26743901       0.04352811      -1.17437522
Al       7.02500000      17.15000000      18.79348279       0.35927575       0.02413860      -1.29501950
Al       7.02500000      19.17500000      15.95326439       0.68768763       0.37138131       1.47039694
Al       5.00000000      21.20000000       5.00000000      -0.05152083      -0.43626402      -0.63154980
Al       5.00000000      23.22500000       7.02500000       0.50464816      -0.50464822       0.31826047
Al       7.02500000      21.20000000       7.02500000       0.42447332      -0.42447360       1.31426688
Al       7.02500000      23.22500000       5.00000000       0.43626390       0.05152079      -0.63154981
Al       7.08542190      19.03578912       9.34373712       0.02078262      -0.00055659       0.04010661
Al       7.98182594      20.24317465      13.17191655      -0.00059102       0.00059064      -0.01719613
Al      10.04501951      18.17998080      13.68827048       0.03325126      -0.03325217       0.00000138
Al       9.18921083      21.13957841       9.34373700       0.00055593      -0.02078255       0.04010666
Al       5.00000000      21.20000000      15.95326439       0.61963612      -0.69582545       0.99196245
Al       5.00000000      23.22500000      18.79348279       0.90794542      -0.90794548      -0.98155523
Al       7.02500000      21.20000000      18.79348279       0.34670702      -0.34670711      -1.29261183
Al       7.02500000      23.22500000      15.95326439       0.69582525      -0.61963615       0.99196253
Al       9.05000000       5.00000000       5.00000000      -0.02844457      -0.13273853      -0.61779974
Al       9.05000000       7.02500000       7.02500000       0.08709254       0.27305422       0.38321056
Al      11.07500000       5.00000000       7.02500000       0.24913182      -0.14355042       1.19460585
Al      11.07500000       7.02500000       5.00000000      -0.01664976       0.33263818      -0.94766282
Al       9.96643281       6.13512297       9.53079058       0.01439823       0.00797010       0.00442539
Al       9.24517980       7.15556670      13.91465131       0.00791244      -0.00930706       0.00388705
Al      11.34966048       5.89543838      12.21236481       0.00434813      -0.00710538       0.00536611
Al      11.94506410       8.22427543       9.56080265       0.02062659       0.02898358      -0.01012749
Al       9.05000000       5.00000000      15.95326439      -0.01177441       0.17291457       0.68653677
Al       9.05000000       7.02500000      18.79348279      -0.03505915       0.35233940      -1.28582140
Al      11.07500000       5.00000000      18.79348279      -0.01399879       0.25424836      -1.15941833
Al      11.07500000       7.02500000      15.95326439       0.75402514       0.42027454       1.14138007
Al       9.05000000       9.05000000       5.00000000      -0.04218957      -0.03915591      -0.88791878
Al       9.05000000      11.07500000       7.02500000       0.29216541      -0.06003597       0.43926620
Al      11.07500000       9.05000000       7.02500000       0.08219833      -0.15983520       0.47093098
Al      11.07500000      11.07500000       5.00000000      -0.01815458      -0.01770351      -0.91513193
Al       9.05265376       9.02600500       9.06924616       0.02940808       0.00769972      -0.03022272
Al       9.03308443      11.26749556      11.12313619       0.02709818       0.01499313      -0.03108952
Al      10.70350928      10.58650809      13.27938349       0.00491447      -0.00756583       0.00531077
Al      11.11362641      11.04142652       9.17202308       0.01325713      -0.02436424      -0.00742576
Al       9.05000000       9.05000000      15.95326439       0.40966546       0.38075182       1.90200768
Al       9.05000000      11.07500000      18.79348279      -0.03472500      -0.00806879      -1.21439303
Al      11.07500000       9.05000000      18.79348279      -0.01057673      -0.04275271      -1.20575099
Al      11.07500000      11.07500000      15.95326439       0.08735096       0.01715776       1.40632493
Al       9.05000000      13.10000000       5.00000000      -0.03767935      -0.01882542      -0.89605269
Al       9.05000000      15.12500000       7.02500000      -0.16241095      -0.07337427       0.68326537
Al      11.07500000      13.10000000       7.02500000       0.10877027       0.02160063       0.74192406
Al      11.07500000      15.12500000       5.00000000      -0.01811598       0.00160148      -0.91529801
Al       9.02956683      13.13048655       9.03652670      -0.00736000       0.00145149      -0.01912450
Al      10.94094279      13.32762421      13.86381477       0.03376709      -0.01881116       0.00434232
Al      11.58272635      13.04325745      11.32356187       0.03005374      -0.00079216       0.01770332
Al      11.15968007      15.07673491       9.26510306       0.02284456      -0.01253501       0.02025382
Al       9.05000000      13.10000000      15.95326439      -0.15053597       0.04485960       2.03181992
Al       9.05000000      15.12500000      18.79348279      -0.03419795       0.01279398      -1.25946219
Al      11.07500000      13.10000000      18.79348279      -0.00948777       0.00461760      -1.25603012
Al      11.07500000      15.12500000      15.95326439       0.39273384       0.78468857       1.29648366
Al       9.05000000      17.15000000       5.00000000      -0.03002269       0.01950401      -0.89858518
Al       9.05000000      19.17500000       7.02500000      -0.13841835       0.13841769       0.95031293
Al      11.07500000      17.15000000       7.02500000       0.51622767      -0.51622815       0.05889450
Al      11.07500000      19.17500000       5.00000000      -0.01950437       0.03002245      -0.89858527
Al       9.21710618      17.03662992       9.04879131       0.02336992       0.00390784       0.03365336
Al      11.61006756      16.61493275      11.82612610       0.03664662      -0.03664763       0.01259881
Al      13.40870853      14.81629237      13.40751390       0.04252322      -0.04252367      -0.01029893
Al      11.18837000      19.00789450       9.04879118      -0.00390891      -0.02336987       0.03365320
Al       9.05000000      17.15000000      15.95326439      -0.45665162       0.25861121       2.60747081
Al       9.05000000      19.17500000      18.79348279      -0.04205679       0.04205667      -1.24038510
Al      11.07500000      17.15000000      18.79348279      -0.01941028       0.01941016      -1.23814852
Al      11.07500000      19.17500000      15.95326439      -0.25860957       0.45665160       2.60747052
Al       9.05000000      21.20000000       5.00000000      -0.04042941      -0.33559477      -0.94501642
Al       9.05000000      23.22500000       7.02500000       0.05760326       0.06983808       0.92893761
Al      11.07500000      21.20000000       7.02500000      -0.01298380      -0.28326837       0.91229313
Al      11.07500000      23.22500000       5.00000000      -0.02182618       0.13850905      -0.69297830
Al      10.67155036      19.75713786      11.50653256       0.02423890      -0.04269836       0.04438163
Al      10.79525652      21.30983653      13.76637667       0.00572627       0.00068935       0.00600860
Al      12.77492664      19.12491581      13.82222925       0.00491033      -0.03003225       0.01934076
Al      12.81595038      21.34287600       9.44164848      -0.05023112       0.01309339       0.04429100
Al       9.05000000      21.20000000      15.95326439      -0.37138083      -0.68768730       1.47039608
Al       9.05000000      23.22500000      18.79348279      -0.04352819      -0.26743903      -1.17437518
Al      11.07500000      21.20000000      18.79348279      -0.02413868      -0.35927579      -1.29501947
Al      11.07500000      23.22500000      15.95326439       0.21307075      -0.15154310       0.97447941
Al      13.10000000       5.00000000       5.00000000      -0.00086702      -0.15932514      -0.58858996
Al      13.10000000       7.02500000       7.02500000       0.13099304       0.50292918       1.52008661
Al      15.12500000       5.00000000       7.02500000      -0.08286927      -0.05617700       1.35950640
Al      15.12500000       7.02500000       5.00000000       0.01677026       0.32779970      -1.00280109
Al      13.18912886       5.57787456       9.60620995      -0.01296025       0.00956135       0.00043813
Al      12.34796702       8.30574098      13.27975051      -0.00364665       0.02436561      -0.01378383
Al      14.43726883       6.27969969      12.82420908       0.01674908      -0.02363331       0.04005120
Al      14.62478284       8.09633203      10.20914702      -0.02676413       0.02009083       0.04354492
Al      13.10000000       5.00000000      15.95326439      -0.06732328       0.54325187       0.19792099
Al      13.10000000       7.02500000      18.79348279       0.00352534       0.35576059      -1.24219709
Al      15.12500000       5.00000000      18.79348279       0.00643007       0.25501077      -1.15675963
Al      15.12500000       7.02500000      15.95326439       0.04560514       0.29138415       0.52644259
Al      13.10000000       9.05000000       5.00000000      -0.00880663      -0.03680213      -1.04131919
Al      13.10000000      11.07500000       7.02500000      -0.16263668      -0.51332049       0.92103278
Al      15.12500000       9.05000000       7.02500000      -0.44324646      -0.53390185       1.42928574
Al      15.12500000      11.07500000       5.00000000       0.01640220      -0.01177744      -0.91146174
Al      13.04796059      10.39117255      11.16098340      -0.00519569      -0.01027575       0.00853457
Al      13.38120531      11.59641486      13.61014297       0.00115923      -0.01162748      -0.00147709
Al      15.07719386       9.10478056      13.76910293       0.00346353      -0.00938336       0.00628219
Al      15.06472208      11.05380149       9.10666469       0.01393473      -0.01303880      -0.01212831
Al      13.10000000       9.05000000      15.95326439      -0.19098431       0.31008305       1.16547652
Al      13.10000000      11.07500000      18.79348279       0.00089604      -0.00769992      -1.22742733
Al      15.12500000       9.05000000      18.79348279       0.00774428      -0.04071306      -1.23067747
Al      15.12500000      11.07500000      15.95326439      -0.11835348      -0.16276528       1.98596087
Al      13.10000000      13.10000000       5.00000000       0.00861840      -0.01357523      -0.88832654
Al      13.10000000      15.12500000       7.02500000      -0.12702090       0.12702026       0.61280416
Al      15.12500000      13.10000000       7.02500000       0.10527931      -0.10527836       0.32498860
Al      15.12500000      15.12500000       5.00000000       0.01357521      -0.00861900      -0.88832647
Al      13.15772170      13.09358295       9.09886015       0.01493655      -0.04114668      -0.00158242
Al      14.97751064      13.24748622      11.37495749      -0.00716885       0.00716680      -0.02304572
Al      15.13141487      15.06727720       9.09886166       0.04114500      -0.01493844      -0.00158206
Al      13.10000000      13.10000000      15.95326439       0.20923754       0.29699393       1.44657867
Al      13.10000000      15.12500000      18.79348279      -0.00407572       0.00407563      -1.23007682
Al      15.12500000      13.10000000      18.79348279       0.00430994      -0.00431007      -1.22561660
Al      15.12500000      15.12500000      15.95326439      -0.29699370      -0.20923784       1.44658043
Al      13.10000000      17.15000000       5.00000000      -0.00160196       0.01811566      -0.91529818
Al      13.10000000      19.17500000       7.02500000       0.07337462       0.16241201       0.68326417
Al      15.12500000      17.15000000       7.02500000      -0.02160465      -0.10877255       0.74192293
Al      15.12500000      19.17500000       5.00000000       0.01882544       0.03767935      -0.89605301
Al      13.14826496      17.06532114       9.26510217       0.01253392      -0.02284477       0.02025356
Al      14.89737991      17.28405630      13.86381595       0.01881261      -0.03376754       0.00434335
Al      15.18173931      16.64227483      11.32356229       0.00078948      -0.03005458       0.01770329
Al      15.09451332      19.19543409       9.03652704      -0.00145184       0.00736045      -0.01912392
Al      13.10000000      17.15000000      15.95326439      -0.78468469      -0.39273588       1.29648020
Al      13.10000000      19.17500000      18.79348279      -0.01279399       0.03419787      -1.25946218
Al      15.12500000      17.15000000      18.79348279      -0.00461756       0.00948774      -1.25603026
Al      15.12500000      19.17500000      15.95326439      -0.04486043       0.15053836       2.03182399
Al      13.10000000      21.20000000       5.00000000      -0.01095469      -0.34492110      -0.94796781
Al      13.10000000      23.22500000       7.02500000       0.07169880       0.10453352       1.10839689
Al      15.12500000      21.20000000       7.02500000      -0.50528328       0.07226823       1.03469974
Al      15.12500000      23.22500000       5.00000000       0.01386201       0.13599804      -0.68908435
Al      13.60145396      19.18648026      11.30692281       0.00718835      -0.06586373       0.00387008
Al      13.54139989      22.01180624      13.17120047      -0.03041693      -0.01595873       0.00655939
Al      15.63138910      20.08000768      13.44081791      -0.02752292      -0.03122920      -0.00001000
Al      15.37027381      21.69658242      10.93445901      -0.01739485       0.01082445      -0.02840877
Al      13.10000000      21.20000000      15.95326439       0.08418171      -0.47514113       1.15291693
Al      13.10000000      23.22500000      18.79348279      -0.01470450      -0.25549406      -1.17254084
Al      15.12500000      21.20000000      18.79348279      -0.00307490      -0.36170333      -1.25732423
Al      15.12500000      23.22500000      15.95326439      -0.00266723      -0.51452872       0.27169415
Al      17.15000000       5.00000000       5.00000000       0.01193867      -0.14243360      -0.63007629
Al      17.15000000       7.02500000       7.02500000      -0.00315626       0.08401889       1.01397084
Al      19.17500000       5.00000000       7.02500000      -0.21517797      -0.17888832       1.06663773
Al      19.17500000       7.02500000       5.00000000       0.02970380       0.33823182      -0.94749519
Al      16.43099813       5.94891629       9.72402702      -0.01630388      -0.00113406      -0.01399864
Al      17.03630968       7.57211252      12.26964316       0.00320206      -0.00800604      -0.02083533
Al      18.63892247       5.56363256      13.40533463      -0.05588016       0.02184867      -0.01371023
Al      17.15629043       8.96142264       9.11642899       0.00260015      -0.00318862      -0.00361934
Al      17.15000000       5.00000000      15.95326439      -0.19117932       0.34562387       0.73112461
Al      17.15000000       7.02500000      18.79348279       0.01743272       0.35616610      -1.23804783
Al      19.17500000       5.00000000      18.79348279       0.03736675       0.25636124      -1.19077368
Al      19.17500000       7.02500000      15.95326439      -0.21332831       0.61918037       1.07932631
Al      17.15000000       9.05000000       5.00000000       0.01938271      -0.03324713      -0.92389938
Al      17.15000000      11.07500000       7.02500000       0.05554434      -0.05553205       0.86486814
Al      19.17500000       9.05000000       7.02500000       0.35729716      -0.35728166       1.27556945
Al      19.17500000      11.07500000       5.00000000       0.03324667      -0.01938277      -0.92390101
Al      16.09044101      10.21724321      11.47254504      -0.03402096       0.02734854       0.00859052
Al      16.19721547      12.02777785      13.63183028      -0.01721984       0.01721778       0.00843057
Al      18.23877844       9.98623291      13.59630946       0.01477192      -0.01477475       0.01508105
Al      18.00772397      12.13455748      11.47253730      -0.02734905       0.03402338       0.00858999
Al      17.15000000       9.05000000      15.95326439      -0.17603636      -0.36578830       1.27387812
Al      17.15000000      11.07500000      18.79348279       0.01563628      -0.01563646      -1.22857777
Al      19.17500000       9.05000000      18.79348279       0.04238565      -0.04238574      -1.20620041
Al      19.17500000      11.07500000      15.95326439       0.36579901       0.17604133       1.27392541
Al      17.15000000      13.10000000       5.00000000       0.01177757      -0.01640180      -0.91146032
Al      17.15000000      15.12500000       7.02500000       0.51331164       0.16266551       0.92100344
Al      19.17500000      13.10000000       7.02500000       0.53393245       0.44323871       1.42928959
Al      19.17500000      15.12500000       5.00000000       0.03680191       0.00880660      -1.04131798
Al      17.17120725      13.16028990       9.10665687       0.01303728      -0.01393387      -0.01212926
Al      16.62858654      14.84378875      13.61014372       0.01162689      -0.00116090      -0.00147727
Al      19.12022138      13.14779151      13.76909463       0.00938382      -0.00346856       0.00628259
Al      17.83381792      15.17704220      11.16098263       0.01027519       0.00519664       0.00853400
Al      17.15000000      13.10000000      15.95326439       0.16277233       0.11834198       1.98593483
Al      17.15000000      15.12500000      18.79348279       0.00769969      -0.00089591      -1.22742702
Al      19.17500000      13.10000000      18.79348279       0.04071306      -0.00774453      -1.23067667
Al      19.17500000      15.12500000      15.95326439      -0.31008054       0.19096699       1.16543794
Al      17.15000000      17.15000000       5.00000000       0.01770388       0.01815436      -0.91513163
Al      17.15000000      19.17500000       7.02500000       0.06003612      -0.29216330       0.43926286
Al      19.17500000      17.15000000       7.02500000       0.15983109      -0.08218917       0.47091587
Al      19.17500000      19.17500000       5.00000000       0.03915637       0.04218959      -0.88791881
Al      17.18356994      17.11137446       9.17202115       0.02436399      -0.01325791      -0.00742628
Al      16.95750493      19.19191251      11.12313755      -0.01499245      -0.02710009      -0.03108830
Al      17.63849776      17.52148544      13.27938560       0.00756889      -0.00491593       0.00531164
Al      19.19899432      19.17234468       9.06924671      -0.00769857      -0.02940863      -0.03022149
Al      17.15000000      17.15000000      15.95326439      -0.01715985      -0.08734945       1.40633777
Al      17.15000000      19.17500000      18.79348279       0.00806894       0.03472503      -1.21439317
Al      19.17500000      17.15000000      18.79348279       0.04275271       0.01057704      -1.20575074
Al      19.17500000      19.17500000      15.95326439      -0.38075024      -0.40966057       1.90200958
Al      17.15000000      21.20000000       5.00000000       0.02095945      -0.35050525      -0.84870205
Al      17.15000000      23.22500000       7.02500000       0.01057468       0.58886395       0.78405431
Al      19.17500000      21.20000000       7.02500000       0.27962548      -0.06403773       0.34208944
Al      19.17500000      23.22500000       5.00000000       0.03949094       0.11989948      -0.66146792
Al      17.20621355      21.21872095       8.97727605      -0.00007946       0.01581917       0.00874323
Al      17.05196768      22.65298054      13.36220505       0.00151426       0.00265974      -0.02965423
Al      18.50041991      20.19909444      13.51740468       0.02971358       0.00365057       0.02965199
Al      18.98963411      21.44125480      11.07014899       0.01230708       0.00298424       0.00185544
Al      17.15000000      21.20000000      15.95326439      -0.07571491      -0.47569898       1.12876990
Al      17.15000000      23.22500000      18.79348279       0.01264021      -0.24369605      -1.18517475
Al      19.17500000      21.20000000      18.79348279       0.04364932      -0.35896849      -1.26135020
Al      19.17500000      23.22500000      15.95326439      -0.24476973      -0.38147605       0.61599432
Al      21.20000000       5.00000000       5.00000000      -0.44608382      -0.04584422      -0.62187834
Al      21.20000000       7.02500000       7.02500000      -0.37772341       0.37773738       1.20969222
Al      23.22500000       5.00000000       7.02500000      -0.54207756       0.54207636       0.41041225
Al      23.22500000       7.02500000       5.00000000       0.04584430       0.44608330      -0.62187940
Al      19.26179213       6.83994422       9.42501680      -0.02407787      -0.00351817      -0.00621661
Al      19.07407583       9.15089899      11.11006928       0.02680264      -0.02680778      -0.01375092
Al      20.35082546       7.87417873      13.34574426       0.01603187      -0.01603073      -0.02165455
Al      21.38505283       8.96321630       9.42502803       0.00351797       0.02408084      -0.00621610
Al      21.20000000       5.00000000      15.95326439      -0.87195797       0.59258037       0.63643270
Al      21.20000000       7.02500000      18.79348279      -0.35071033       0.35070989      -1.28213976
Al      23.22500000       5.00000000      18.79348279      -0.90490560       0.90490530      -0.96726650
Al      23.22500000       7.02500000      15.95326439      -0.59258653       0.87195992       0.63642961
Al      21.20000000       9.05000000       5.00000000      -0.33823209      -0.02970391      -0.94749729
Al      21.20000000      11.07500000       7.02500000      -0.08403840       0.00314524       1.01396238
Al      23.22500000       9.05000000       7.02500000       0.17887600       0.21517883       1.06665524
Al      23.22500000      11.07500000       5.00000000       0.14243382      -0.01193772      -0.63007420
Al      19.26357864      11.06871129       9.11643714       0.00318797      -0.00260251      -0.00361771
Al      20.65286639      11.18869424      12.26957520       0.00800059      -0.00320367      -0.02084005
Al      22.66133910       9.58612581      13.40532554      -0.02184959       0.05589137      -0.01371096
Al      22.27609295      11.79401384       9.72400841       0.00113171       0.01630686      -0.01399760
Al      21.20000000       9.05000000      15.95326439      -0.61917596       0.21332118       1.07933953
Al      21.20000000      11.07500000      18.79348279      -0.35616614      -0.01743270      -1.23804810
Al      23.22500000       9.05000000      18.79348279      -0.25636180      -0.03736658      -1.19077177
Al      23.22500000      11.07500000      15.95326439      -0.34561057       0.19119337       0.73115839
Al      21.20000000      13.10000000       5.00000000      -0.32779880      -0.01677042      -1.00280121
Al      21.20000000      15.12500000       7.02500000      -0.50292245      -0.13099738       1.52008162
Al      23.22500000      13.10000000       7.02500000       0.05619026       0.08288398       1.35947539
Al      23.22500000      15.12500000       5.00000000       0.15932498       0.00086686      -0.58859038
Al      20.12866735      13.60021727      10.20917956      -0.02009267       0.02676629       0.04354518
Al      19.91926089      15.87701539      13.27974259      -0.02436425       0.00364243      -0.01378522
Al      21.94531542      13.78770819      12.82423425       0.02363124      -0.01675919       0.04004886
Al      22.64712060      15.03586904       9.60621292      -0.00956163       0.01296119       0.00043840
Al      21.20000000      13.10000000      15.95326439      -0.29139137      -0.04560744       0.52646098
Al      21.20000000      15.12500000      18.79348279      -0.35576032      -0.00352525      -1.24219689
Al      23.22500000      13.10000000      18.79348279      -0.25501061      -0.00642998      -1.15676053
Al      23.22500000      15.12500000      15.95326439      -0.54324916       0.06732073       0.19792150
Al      21.20000000      17.15000000       5.00000000      -0.33263811       0.01664970      -0.94766245
Al      21.20000000      19.17500000       7.02500000      -0.27305236      -0.08709295       0.38321416
Al      23.22500000      17.15000000       7.02500000       0.14355176      -0.24913243       1.19460571
Al      23.22500000      19.17500000       5.00000000       0.13273834       0.02844472      -0.61780047
Al      20.00071554      16.27992602       9.56079689      -0.02898517      -0.02062706      -0.01012828
Al      21.06943203      18.97981613      13.91464978       0.00930663      -0.00791297       0.00388665
Al      22.32956214      16.87532916      12.21236847       0.00710653      -0.00435114       0.00536797
Al      22.08987077      18.25855855       9.53079131      -0.00797113      -0.01440057       0.00442564
Al      21.20000000      17.15000000      15.95326439      -0.42027867      -0.75403387       1.14137545