299
Lattice="28.224999999999998 0.0 0.0 0.0 28.224999999999998 0.0 0.0 0.0 20.125" Properties=species:S:1:pos:R:3:forces:R:3 energy=-16469.489677108177 pbc="T T T"
Al       5.00000000       5.00000000       5.00000000       0.31787411       0.31823299       0.31354959
Al       5.00000000       7.02500000       7.02500000      -0.47864266       0.23987384       0.50160113
Al       7.02500000       5.00000000       7.02500000       0.23666607      -0.47386834       0.50069252
Al       7.02500000       7.02500000       5.00000000       0.32115346       0.31999011      -0.58867224
Al       4.97724067       4.97804147       9.09617921       0.02965685       0.03314285      -0.02356631
Al       4.87672793       7.05375230      11.12877670       0.03537966      -0.00231159      -0.00204661
Al       7.05094664       4.87358912      11.12860810      -0.00368106       0.02799315      -0.00040665
Al       7.02689684       7.02825613       9.11453540       0.02077897       0.01457339      -0.05095318
Al       5.00000000       5.00000000      13.17087500       0.00115144       0.00651793      -0.53702470
Al       5.00000000       7.02500000      15.21612500      -0.07459437       0.45553817      -0.02050537
Al       7.02500000       5.00000000      15.21612500       0.45678067      -0.07405454      -0.02124861
Al       7.02500000       7.02500000      13.17087500       0.15014060       0.15621427      -0.65015670
Al       5.00000000       9.05000000       5.00000000      -0.21267497      -0.03759495      -0.18025791
Al       5.00000000      11.07500000       7.02500000      -0.58704467      -0.00749803       0.35573278
Al       7.02500000       9.05000000       7.02500000       0.09519965      -0.04956314       0.67357059
Al       7.02500000      11.07500000       5.00000000       0.32257405      -0.02061657      -0.64241204
Al       4.82353939       9.04990549       9.05591296       0.02940621      -0.01357061      -0.00453112
Al       4.80899724      11.06601406      11.13876163      -0.00051436      -0.00807988      -0.01925876
Al       7.00043317       9.06482255      11.10692820       0.00618222      -0.00262367       0.00082370
Al       6.98105611      11.07968886       9.09796517      -0.00502784      -0.01586299      -0.02611091
Al       5.00000000       9.05000000      13.17087500      -0.55637884      -0.01951335      -0.22348815
Al       5.00000000      11.07500000      15.21612500      -0.18730831      -0.01934741       0.07604250
Al       7.02500000       9.05000000      15.21612500       0.32293782      -0.04416175       0.53006019
Al       7.02500000      11.07500000      13.17087500       0.07240815      -0.00345287      -0.51254987
Al       5.00000000      13.10000000       5.00000000      -0.22025089      -0.00783775      -0.18476554
Al       5.00000000      15.12500000       7.02500000      -0.60916133       0.01111508       0.37059645
Al       7.02500000      13.10000000       7.02500000       0.08284040      -0.00598591       0.67737046
Al       7.02500000      15.12500000       5.00000000       0.32199378       0.00463745      -0.64380199
Al       4.81078305      13.09655386       9.06522125      -0.00697542      -0.00562271      -0.01822812
Al       4.81352427      15.12657516      11.13898000      -0.01655749       0.00280224      -0.01500812
Al       6.96438333      13.09440778      11.10358846      -0.00996344      -0.00569999      -0.00798824
Al       6.96735792      15.12651909       9.09662329      -0.01708616      -0.00076643      -0.02879906
Al       5.00000000      13.10000000      13.17087500      -0.59234777      -0.01750241      -0.25336232
Al       5.00000000      15.12500000      15.21612500      -0.18883274       0.00459346       0.07710918
Al       7.02500000      13.10000000      15.21612500       0.32290934      -0.00728966       0.52963421
Al       7.02500000      15.12500000      13.17087500       0.00402478       0.00143661      -0.46926771
Al       5.00000000      17.15000000       5.00000000      -0.21934205       0.01722195      -0.18480189
Al       5.00000000      19.17500000       7.02500000      -0.57133328       0.01799949       0.34555090
Al       7.02500000      17.15000000       7.02500000       0.08637818       0.00586327       0.66680725
Al       7.02500000      19.17500000       5.00000000       0.32211800       0.04169423      -0.64448528
Al       4.80958411      17.15781260       9.06544209       0.00003089       0.00672825      -0.01284151
Al       4.81786613      19.17777347      11.14937603       0.01328324       0.01339702      -0.02367037
Al       6.96720566      17.15453796      11.10564247      -0.00059736       0.00958373      -0.00883479
Al       7.00001919      19.16317396       9.09892923       0.00001969      -0.00046875      -0.04211650
Al       5.00000000      17.15000000      13.17087500      -0.59148523       0.00284845      -0.22466121
Al       5.00000000      19.17500000      15.21612500      -0.18416792       0.03715255       0.07320210
Al       7.02500000      17.15000000      15.21612500       0.32175683       0.01572731       0.52958335
Al       7.02500000      19.17500000      13.17087500       0.10104510       0.05188776      -0.53777725
Al       5.00000000      21.20000000       5.00000000      -0.11018152      -0.45137010      -0.09472138
Al       5.00000000      23.22500000       7.02500000      -0.01426661       0.01426661       0.61410612
Al       7.02500000      21.20000000       7.02500000       0.16090566      -0.16090566       0.78594862
Al       7.02500000      23.22500000       5.00000000       0.45137010       0.11018152      -0.09472138
Al       4.87787593      21.17168927       9.07742731       0.03365354       0.00263908      -0.02902089
Al       4.97902394      23.24597606      11.10985713       0.02378242      -0.02378242       0.00084534
Al       7.03477889      21.19022111      11.09102788       0.00960716      -0.00960716       0.02166234
Al       7.05331073      23.34712407       9.07742731      -0.00263908      -0.03365354      -0.02902089
Al       5.00000000      21.20000000      13.17087500      -0.45764634      -0.23637452      -0.38679931
Al       5.00000000      23.22500000      15.21612500       0.34852305      -0.34852305      -0.41713693
Al       7.02500000      21.20000000      15.21612500       0.31933410      -0.31933410       0.47767917
Al       7.02500000      23.22500000      13.17087500       0.23637452       0.45764634      -0.38679931
Al       9.05000000       5.00000000       5.00000000      -0.03501936      -0.21157024      -0.17879982
Al       9.05000000       7.02500000       7.02500000      -0.05764637       0.09446840       0.67223639
Al      11.07500000       5.00000000       7.02500000      -0.00225753      -0.60001474       0.34425031
Al      11.07500000       7.02500000       5.00000000      -0.01650129       0.32179573      -0.63903776
Al       9.04783731       4.82008861       9.05510293      -0.01320787       0.02398540      -0.00343162
Al       9.05327856       6.98849806      11.10602169       0.00635301       0.01160932      -0.00002390
Al      11.06790742       4.81128170      11.13881636      -0.00720786       0.00340270      -0.01951513
Al      11.07194321       6.97014588       9.09577101      -0.00620051       0.00318977      -0.02251247
Al       9.05000000       5.00000000      13.17087500      -0.01807315      -0.56726382      -0.21746481
Al       9.05000000       7.02500000      15.21612500      -0.04146440       0.32157412       0.52861912
Al      11.07500000       5.00000000      15.21612500      -0.01643462      -0.18524494       0.07500823
Al      11.07500000       7.02500000      13.17087500      -0.00786843       0.04188009      -0.49389203
Al       9.05000000       9.05000000       5.00000000      -0.04160260      -0.04444672      -0.70417382
Al       9.05000000      11.07500000       7.02500000      -0.08079177       0.01356275       0.54159411
Al      11.07500000       9.05000000       7.02500000      -0.01719711      -0.08630194       0.53047135
Al      11.07500000      11.07500000       5.00000000      -0.01643526      -0.02041203      -0.70189482
Al       9.05488741       9.05754408       9.08573322      -0.00000272      -0.00895290      -0.04507408
Al       9.06087889      11.10261431      11.12461606      -0.00115470      -0.01440605      -0.01659852
Al      11.07404967       9.03090139      11.12066535      -0.00903752      -0.00866130      -0.00826849
Al      11.08968937      11.09367921       9.08864813      -0.02239141      -0.02592830      -0.02041867
Al       9.05000000       9.05000000      13.17087500      -0.09146856      -0.07710267      -0.41846814
Al       9.05000000      11.07500000      15.21612500      -0.04341466      -0.01978285       0.59267834
Al      11.07500000       9.05000000      15.21612500      -0.01561808      -0.04611863       0.59093643
Al      11.07500000      11.07500000      13.17087500      -0.01964367       0.00258665      -0.32810677
Al       9.05000000      13.10000000       5.00000000      -0.04198048      -0.00888585      -0.70640870
Al       9.05000000      15.12500000       7.02500000      -0.02505507       0.00095958       0.58230394
Al      11.07500000      13.10000000       7.02500000       0.01595399       0.04077997       0.47689254
Al      11.07500000      15.12500000       5.00000000      -0.01264696       0.00356987      -0.70336423
Al       9.04894764      13.11341615       9.09148101      -0.02562314      -0.01573152      -0.03754382
Al       9.00887544      15.12493040      11.12950152      -0.02032009      -0.00455508      -0.02423846
Al      11.14689966      13.17390146      11.14706587      -0.00027343       0.01365009      -0.03587410
Al      11.11674289      15.12390467       9.11510289      -0.03433772      -0.00226623      -0.03863539
Al       9.05000000      13.10000000      13.17087500      -0.08901944       0.00609864      -0.37575863
Al       9.05000000      15.12500000      15.21612500      -0.04279486       0.00384145       0.58841691
Al      11.07500000      13.10000000      15.21612500      -0.02339557      -0.01634665       0.60376133
Al      11.07500000      15.12500000      13.17087500       0.33838790       0.00273162      -0.40160673
Al       9.05000000      17.15000000       5.00000000      -0.04314887       0.01802734      -0.70693319
Al       9.05000000      19.17500000       7.02500000      -0.05844300       0.05844300       0.58439680
Al      11.07500000      17.15000000       7.02500000       0.02053850      -0.02053850       0.49126654
Al      11.07500000      19.17500000       5.00000000      -0.01802734       0.04314887      -0.70693319
Al       9.05405549      17.13337457       9.09129111      -0.01212654       0.02130613      -0.03621105
Al       9.07356451      19.15143549      11.12236712       0.00239379      -0.00239379       0.00051712
Al      11.15049472      17.07450528      11.14683230       0.00589696      -0.00589696      -0.03551142
Al      11.09162543      19.17094451       9.09129111      -0.02130613       0.01212654      -0.03621105
Al       9.05000000      17.15000000      13.17087500      -0.08139538       0.00494294      -0.38075469
Al       9.05000000      19.17500000      15.21612500      -0.04313975       0.04313975       0.59625739
Al      11.07500000      17.15000000      15.21612500      -0.02417066       0.02417066       0.60543686
Al      11.07500000      19.17500000      13.17087500      -0.00494294       0.08139538      -0.38075469
Al       9.05000000      21.20000000       5.00000000      -0.04169423      -0.32211800      -0.64448528
Al       9.05000000      23.22500000       7.02500000      -0.01799949       0.57133328       0.34555090
Al      11.07500000      21.20000000       7.02500000      -0.00586327      -0.08637818       0.66680725
Al      11.07500000      23.22500000       5.00000000      -0.01722195       0.21934205      -0.18480189
Al       9.06182604      21.22498081       9.09892923       0.00046875      -0.00001969      -0.04211650
Al       9.04722653      23.40713387      11.14937603      -0.01339702      -0.01328324      -0.02367037
Al      11.07046204      21.25779434      11.10564247      -0.00958373       0.00059736      -0.00883479
Al      11.06718740      23.41541589       9.06544209      -0.00672825      -0.00003089      -0.01284151
Al       9.05000000      21.20000000      13.17087500      -0.05188776      -0.10104510      -0.53777725
Al       9.05000000      23.22500000      15.21612500      -0.03715255       0.18416792       0.07320210
Al      11.07500000      21.20000000      15.21612500      -0.01572731      -0.32175683       0.52958335
Al      11.07500000      23.22500000      13.17087500      -0.00284845       0.59148523      -0.22466121
Al      13.10000000       5.00000000       5.00000000      -0.00474598      -0.21705977      -0.18255300
Al      13.10000000       7.02500000       7.02500000      -0.00249239       0.04074448       0.64288545
Al      15.12500000       5.00000000       7.02500000       0.01497095      -0.60169157       0.37288722
Al      15.12500000       7.02500000       5.00000000       0.00791907       0.32269163      -0.63938699
Al      13.09801728       4.81315005       9.06573400      -0.00147605       0.00084359      -0.01746721
Al      13.09834678       6.96981509      11.10446477       0.00110281      -0.01502904      -0.01435450
Al      15.12750840       4.81249716      11.13849478       0.00707787      -0.00334268      -0.01354787
Al      15.12859447       6.96721033       9.09751085       0.00516419      -0.00575928      -0.02382772
Al      13.10000000       5.00000000      13.17087500      -0.01045622      -0.58302246      -0.25993074
Al      13.10000000       7.02500000      15.21612500      -0.00382770       0.32257075       0.52841753
Al      15.12500000       5.00000000      15.21612500       0.00753258      -0.18539512       0.07499287
Al      15.12500000       7.02500000      13.17087500       0.00964247       0.03797411      -0.50490793
Al      13.10000000       9.05000000       5.00000000      -0.00419758      -0.04498747      -0.70074746
Al      13.10000000      11.07500000       7.02500000      -0.00413902       0.05860245       0.51948625
Al      15.12500000       9.05000000       7.02500000       0.00588864      -0.09353073       0.52722138
Al      15.12500000      11.07500000       5.00000000       0.00825643      -0.01909890      -0.70007639
Al      13.09985219       9.02865650       9.07880855       0.00509701      -0.02779975      -0.03159750
Al      13.10111126      11.05077503      11.13199387       0.00408099      -0.03442457      -0.03824874
Al      15.12926812       9.02551174      11.12007211       0.00447215      -0.02065208      -0.00810884
Al      15.11089208      11.09070271       9.08817563       0.01647132      -0.03454588      -0.02298830
Al      13.10000000       9.05000000      13.17087500       0.00015918      -0.16919666      -0.31698284
Al      13.10000000      11.07500000      15.21612500      -0.00327526      -0.01813792       0.58314070
Al      15.12500000       9.05000000      15.21612500       0.00755953      -0.04536118       0.59014150
Al      15.12500000      11.07500000      13.17087500      -0.00116033      -0.00397055      -0.31178668
Al      13.10000000      13.10000000       5.00000000      -0.00285022      -0.00502840      -0.69965891
Al      13.10000000      15.12500000       7.02500000      -0.00570994       0.00570994       0.20482098
Al      15.12500000      13.10000000       7.02500000      -0.03887557       0.03887557       0.45799046
Al      15.12500000      15.12500000       5.00000000       0.00502840       0.00285022      -0.69965891
Al      13.10074851      13.14382450       9.11434889      -0.00085222      -0.02390389      -0.03457921
Al      15.05159169      13.17340831      11.14708980      -0.01258034       0.01258034      -0.03481809
Al      15.08117550      15.12425149       9.11434889       0.02390389       0.00085222      -0.03457921
Al      13.10000000      13.10000000      13.17087500      -0.00642758       0.36259869      -0.38813189
Al      13.10000000      15.12500000      15.21612500      -0.00315310       0.00315310       0.73704561
Al      15.12500000      13.10000000      15.21612500       0.01617657      -0.01617657       0.60120210
Al      15.12500000      15.12500000      13.17087500      -0.36259869       0.00642758      -0.38813189
Al      13.10000000      17.15000000       5.00000000      -0.00356987       0.01264696      -0.70336423
Al      13.10000000      19.17500000       7.02500000      -0.00095958       0.02505507       0.58230394
Al      15.12500000      17.15000000       7.02500000      -0.04077997      -0.01595399       0.47689254
Al      15.12500000      19.17500000       5.00000000       0.00888585       0.04198048      -0.70640870
Al      13.10109533      17.10825711       9.11510289       0.00226623       0.03433772      -0.03863539
Al      13.10006960      19.21612456      11.12950152       0.00455508       0.02032009      -0.02423846
Al      15.05109854      17.07810034      11.14706587      -0.01365009       0.00027343      -0.03587410
Al      15.11158385      19.17605236       9.09148101       0.01573152       0.02562314      -0.03754382
Al      13.10000000      17.15000000      13.17087500      -0.00273162      -0.33838790      -0.40160673
Al      13.10000000      19.17500000      15.21612500      -0.00384145       0.04279486       0.58841691
Al      15.12500000      17.15000000      15.21612500       0.01634665       0.02339557       0.60376133
Al      15.12500000      19.17500000      13.17087500      -0.00609864       0.08901944      -0.37575863
Al      13.10000000      21.20000000       5.00000000      -0.00463745      -0.32199378      -0.64380199
Al      13.10000000      23.22500000       7.02500000      -0.01111508       0.60916133       0.37059645
Al      15.12500000      21.20000000       7.02500000       0.00598591      -0.08284040       0.67737046
Al      15.12500000      23.22500000       5.00000000       0.00783775       0.22025089      -0.18476554
Al      13.09848091      21.25764208       9.09662329       0.00076643       0.01708616      -0.02879906
Al      13.09842484      23.41147573      11.13898000      -0.00280224       0.01655749      -0.01500812
Al      15.13059222      21.26061667      11.10358846       0.00569999       0.00996344      -0.00798824
Al      15.12844614      23.41421695       9.06522125       0.00562271       0.00697542      -0.01822812
Al      13.10000000      21.20000000      13.17087500      -0.00143661      -0.00402478      -0.46926771
Al      13.10000000      23.22500000      15.21612500      -0.00459346       0.18883274       0.07710918
Al      15.12500000      21.20000000      15.21612500       0.00728966      -0.32290934       0.52963421
Al      15.12500000      23.22500000      13.17087500       0.01750241       0.59234777      -0.25336232
Al      17.15000000       5.00000000       5.00000000       0.01892576      -0.21478233      -0.18120143
Al      17.15000000       7.02500000       7.02500000       0.01230459       0.06531232       0.64876629
Al      19.17500000       5.00000000       7.02500000       0.01887500      -0.57275059       0.33805757
Al      19.17500000       7.02500000       5.00000000       0.04196791       0.32376973      -0.63854462
Al      17.15819046       4.81075263       9.06501670       0.00994482       0.01122210      -0.00837028
Al      17.15410759       6.96970655      11.10598842       0.01037174       0.00629604      -0.01668893
Al      19.17763247       4.81956094      11.14892239       0.01515454       0.02613585      -0.02594860
Al      19.16833535       6.99353177       9.09714872      -0.00512617       0.01316984      -0.03342061
Al      17.15000000       5.00000000      13.17087500       0.00712880      -0.58268259      -0.22985103
Al      17.15000000       7.02500000      15.21612500       0.01879795       0.32236485       0.52665942
Al      19.17500000       5.00000000      15.21612500       0.03779202      -0.17907697       0.06984713
Al      19.17500000       7.02500000      13.17087500       0.06010811       0.08786645      -0.53239060
Al      17.15000000       9.05000000       5.00000000       0.02073418      -0.04481032      -0.70057738
Al      17.15000000      11.07500000       7.02500000      -0.00048257       0.00048257       0.48937915
Al      19.17500000       9.05000000       7.02500000       0.08425134      -0.08425134       0.56045367
Al      19.17500000      11.07500000       5.00000000       0.04481032      -0.02073418      -0.70057738
Al      17.14102312       9.04502225       9.08296061       0.01978385      -0.01340667      -0.02973093
Al      17.12456404      11.10043596      11.12681825       0.01356974      -0.01356974      -0.03348427
Al      19.16722241       9.05777759      11.11951326       0.00330241      -0.00330241      -0.00158646
Al      19.17997775      11.08397688       9.08296061       0.01340667      -0.01978385      -0.02973093
Al      17.15000000       9.05000000      13.17087500       0.01540249      -0.10070107      -0.37333423
Al      17.15000000      11.07500000      15.21612500       0.01910390      -0.01910390       0.58804686
Al      19.17500000       9.05000000      15.21612500       0.04450997      -0.04450997       0.59243748
Al      19.17500000      11.07500000      13.17087500       0.10070107      -0.01540249      -0.37333423
Al      17.15000000      13.10000000       5.00000000       0.01909890      -0.00825643      -0.70007639
Al      17.15000000      15.12500000       7.02500000      -0.05860245       0.00413902       0.51948625
Al      19.17500000      13.10000000       7.02500000       0.09353073      -0.00588864       0.52722138
Al      19.17500000      15.12500000       5.00000000       0.04498747       0.00419758      -0.70074746
Al      17.13429729      13.11410792       9.08817563       0.03454588      -0.01647132      -0.02298830
Al      17.17422497      15.12388874      11.13199387       0.03442457      -0.00408099      -0.03824874
Al      19.19948826      13.09573188      11.12007211       0.02065208      -0.00447215      -0.00810884
Al      19.19634350      15.12514781       9.07880855       0.02779975      -0.00509701      -0.03159750
Al      17.15000000      13.10000000      13.17087500       0.00397055       0.00116033      -0.31178668
Al      17.15000000      15.12500000      15.21612500       0.01813792       0.00327526       0.58314070
Al      19.17500000      13.10000000      15.21612500       0.04536118      -0.00755953       0.59014150
Al      19.17500000      15.12500000      13.17087500       0.16919666      -0.00015918      -0.31698284
Al      17.15000000      17.15000000       5.00000000       0.02041203       0.01643526      -0.70189482
Al      17.15000000      19.17500000       7.02500000      -0.01356275       0.08079177       0.54159411
Al      19.17500000      17.15000000       7.02500000       0.08630194       0.01719711       0.53047135
Al      19.17500000      19.17500000       5.00000000       0.04444672       0.04160260      -0.70417382
Al      17.13132079      17.13531063       9.08864813       0.02592830       0.02239141      -0.02041867
Al      17.12238569      19.16412111      11.12461606       0.01440605       0.00115470      -0.01659852
Al      19.19409861      17.15095033      11.12066535       0.00866130       0.00903752      -0.00826849
Al      19.16745592      19.17011259       9.08573322       0.00895290       0.00000272      -0.04507408
Al      17.15000000      17.15000000      13.17087500      -0.00258665       0.01964367      -0.32810677
Al      17.15000000      19.17500000      15.21612500       0.01978285       0.04341466       0.59267834
Al      19.17500000      17.15000000      15.21612500       0.04611863       0.01561808       0.59093643
Al      19.17500000      19.17500000      13.17087500       0.07710267       0.09146856      -0.41846814
Al      17.15000000      21.20000000       5.00000000       0.02061657      -0.32257405      -0.64241204
Al      17.15000000      23.22500000       7.02500000       0.00749803       0.58704467       0.35573278
Al      19.17500000      21.20000000       7.02500000       0.04956314      -0.09519965       0.67357059
Al      19.17500000      23.22500000       5.00000000       0.03759495       0.21267497      -0.18025791
Al      17.14531114      21.24394389       9.09796517       0.01586299       0.00502784      -0.02611091
Al      17.15898594      23.41600276      11.13876163       0.00807988       0.00051436      -0.01925876
Al      19.16017745      21.22456683      11.10692820       0.00262367      -0.00618222       0.00082370
Al      19.17509451      23.40146061       9.05591296       0.01357061      -0.02940621      -0.00453112
Al      17.15000000      21.20000000      13.17087500       0.00345287      -0.07240815      -0.51254987
Al      17.15000000      23.22500000      15.21612500       0.01934741       0.18730831       0.07604250
Al      19.17500000      21.20000000      15.21612500       0.04416175      -0.32293782       0.53006019
Al      19.17500000      23.22500000      13.17087500       0.01951335       0.55637884      -0.22348815
Al      21.20000000       5.00000000       5.00000000      -0.45341687      -0.10584485      -0.09054457
Al      21.20000000       7.02500000       7.02500000      -0.15505073       0.15505073       0.78092561
Al      23.22500000       5.00000000       7.02500000       0.01181163      -0.01181163       0.60730134
Al      23.22500000       7.02500000       5.00000000       0.10584485       0.45341687      -0.09054457
Al      21.17328842       4.87524801       9.07570577      -0.00097768       0.04526437      -0.02286195
Al      21.19736201       7.02763799      11.09039910      -0.02010574       0.02010574       0.01368756
Al      23.24741448       4.97758552      11.10888301      -0.02901414       0.02901414       0.00385123
Al      23.34975199       7.05171158       9.07570577      -0.04526437       0.00097768      -0.02286195
Al      21.20000000       5.00000000      13.17087500      -0.23630848      -0.45687819      -0.38561384
Al      21.20000000       7.02500000      15.21612500      -0.32073664       0.32073664       0.47259978
Al      23.22500000       5.00000000      15.21612500      -0.35265834       0.35265834      -0.41922849
Al      23.22500000       7.02500000      13.17087500       0.45687819       0.23630848      -0.38561384
Al      21.20000000       9.05000000       5.00000000      -0.32376973      -0.04196791      -0.63854462
Al      21.20000000      11.07500000       7.02500000      -0.06531232      -0.01230459       0.64876629
Al      23.22500000       9.05000000       7.02500000       0.57275059      -0.01887500       0.33805757
Al      23.22500000      11.07500000       5.00000000       0.21478233      -0.01892576      -0.18120143
Al      21.23146823       9.05666465       9.09714872      -0.01316984       0.00512617      -0.03342061
Al      21.25529345      11.07089241      11.10598842      -0.00629604      -0.01037174      -0.01668893
Al      23.40543906       9.04736753      11.14892239      -0.02613585      -0.01515454      -0.02594860
Al      23.41424737      11.06680954       9.06501670      -0.01122210      -0.00994482      -0.00837028
Al      21.20000000       9.05000000      13.17087500      -0.08786645      -0.06010811      -0.53239060
Al      21.20000000      11.07500000      15.21612500      -0.32236485      -0.01879795       0.52665942
Al      23.22500000       9.05000000      15.21612500       0.17907697      -0.03779202       0.06984713
Al      23.22500000      11.07500000      13.17087500       0.58268259      -0.00712880      -0.22985103
Al      21.20000000      13.10000000       5.00000000      -0.32269163      -0.00791907      -0.63938699
Al      21.20000000      15.12500000       7.02500000      -0.04074448       0.00249239       0.64288545
Al      23.22500000      13.10000000       7.02500000       0.60169157      -0.01497095       0.37288722
Al      23.22500000      15.12500000       5.00000000       0.21705977       0.00474598      -0.18255300
Al      21.25778967      13.09640553       9.09751085       0.00575928      -0.00516419      -0.02382772
Al      21.25518491      15.12665322      11.10446477       0.01502904      -0.00110281      -0.01435450
Al      23.41250284      13.09749160      11.13849478       0.00334268      -0.00707787      -0.01354787
Al      23.41184995      15.12698272       9.06573400      -0.00084359       0.00147605      -0.01746721
Al      21.20000000      13.10000000      13.17087500      -0.03797411      -0.00964247      -0.50490793
Al      21.20000000      15.12500000      15.21612500      -0.32257075       0.00382770       0.52841753
Al      23.22500000      13.10000000      15.21612500       0.18539512      -0.00753258       0.07499287
Al      23.22500000      15.12500000      13.17087500       0.58302246       0.01045622      -0.25993074
Al      21.20000000      17.15000000       5.00000000      -0.32179573       0.01650129      -0.63903776
Al      21.20000000      19.17500000       7.02500000      -0.09446840       0.05764637       0.67223639
Al      23.22500000      17.15000000       7.02500000       0.60001474       0.00225753       0.34425031
Al      23.22500000      19.17500000       5.00000000       0.21157024       0.03501936      -0.17879982
Al      21.25485412      17.15305679       9.09577101      -0.00318977       0.00620051      -0.02251247
Al      21.23650194      19.17172144      11.10602169      -0.01160932      -0.00635301      -0.00002390
Al      23.41371830      17.15709258      11.13881636      -0.00340270       0.00720786      -0.01951513
Al      23.40491139      19.17716269       9.05510293      -0.02398540       0.01320787      -0.00343162
Al      21.20000000      17.15000000      13.17087500      -0.04188009       0.00786843      -0.49389203