299
Lattice="28.224999999999998 0.0 0.0 0.0 28.224999999999998 0.0 0.0 0.0 20.125" Properties=species:S:1:pos:R:3 energy=-16461.89171965903 pbc="T T T"
Al       5.00000000       5.00000000       5.00000000
Al       5.00000000       7.02500000       7.02500000
Al       7.02500000       5.00000000       7.02500000
Al       7.02500000       7.02500000       5.00000000
Al       5.11965269       5.12191969       9.31152860
Al       5.00639514       7.10884057      11.53753246
Al       7.09844684       4.98224056      11.53950953
Al       7.11387135       7.11165209       9.28380664
Al       5.00000000       5.00000000      13.76399437
Al       5.00000000       7.02500000      15.97870705
Al       7.02500000       5.00000000      15.97870705
Al       7.02500000       7.02500000      13.76399437
Al       5.00000000       9.05000000       5.00000000
Al       5.00000000      11.07500000       7.02500000
Al       7.02500000       9.05000000       7.02500000
Al       7.02500000      11.07500000       5.00000000
Al       4.93324554       9.04497451       9.25458907
Al       4.90344416      11.05655857      11.52202849
Al       7.07611065       9.10475899      11.51733487
Al       7.02759936      11.07743660       9.27737742
Al       5.00000000       9.05000000      13.76399437
Al       5.00000000      11.07500000      15.97870705
Al       7.02500000       9.05000000      15.97870705
Al       7.02500000      11.07500000      13.76399437
Al       5.00000000      13.10000000       5.00000000
Al       5.00000000      15.12500000       7.02500000
Al       7.02500000      13.10000000       7.02500000
Al       7.02500000      15.12500000       5.00000000
Al       4.90638716      13.09377876       9.26273435
Al       4.90986525      15.12973571      11.52214210
Al       7.00161898      13.08734446      11.50831893
Al       7.00790736      15.13111874       9.27560738
Al       5.00000000      13.10000000      13.76399437
Al       5.00000000      15.12500000      15.97870705
Al       7.02500000      13.10000000      15.97870705
Al       7.02500000      15.12500000      13.76399437
Al       5.00000000      17.15000000       5.00000000
Al       5.00000000      19.17500000       7.02500000
Al       7.02500000      17.15000000       7.02500000
Al       7.02500000      19.17500000       5.00000000
Al       4.90709732      17.16755353       9.26394053
Al       4.91789560      19.18855975      11.53286791
Al       7.00813953      17.16510961      11.51079872
Al       7.06175000      19.13838603       9.27081311
Al       5.00000000      17.15000000      13.76399437
Al       5.00000000      19.17500000      15.97870705
Al       7.02500000      17.15000000      15.97870705
Al       7.02500000      19.17500000      13.76399437
Al       5.00000000      21.20000000       5.00000000
Al       5.00000000      23.22500000       7.02500000
Al       7.02500000      21.20000000       7.02500000
Al       7.02500000      23.22500000       5.00000000
Al       4.99748053      21.11996683       9.24773555
Al       5.13474101      23.09025899      11.47622887
Al       7.13575242      21.08924758      11.50396013
Al       7.10503317      23.22751947       9.24773555
Al       5.00000000      21.20000000      13.76399437
Al       5.00000000      23.22500000      15.97870705
Al       7.02500000      21.20000000      15.97870705
Al       7.02500000      23.22500000      13.76399437
Al       9.05000000       5.00000000       5.00000000
Al       9.05000000       7.02500000       7.02500000
Al      11.07500000       5.00000000       7.02500000
Al      11.07500000       7.02500000       5.00000000
Al       9.03938779       4.92081684       9.25376455
Al       9.07217794       7.04549832      11.51745003
Al      11.05979112       4.91020711      11.52190583
Al      11.06377129       7.01525838       9.27449868
Al       9.05000000       5.00000000      13.76399437
Al       9.05000000       7.02500000      15.97870705
Al      11.07500000       5.00000000      15.97870705
Al      11.07500000       7.02500000      13.76399437
Al       9.05000000       9.05000000       5.00000000
Al       9.05000000      11.07500000       7.02500000
Al      11.07500000       9.05000000       7.02500000
Al      11.07500000      11.07500000       5.00000000
Al       9.09093182       9.09420396       9.26722264
Al       9.11464071      11.14283359      11.52396089
Al      11.07592220       9.04506997      11.52187188
Al      11.09682482      11.09966947       9.27920269
Al       9.05000000       9.05000000      13.76399437
Al       9.05000000      11.07500000      15.97870705
Al      11.07500000       9.05000000      15.97870705
Al      11.07500000      11.07500000      13.76399437
Al       9.05000000      13.10000000       5.00000000
Al       9.05000000      15.12500000       7.02500000
Al      11.07500000      13.10000000       7.02500000
Al      11.07500000      15.12500000       5.00000000
Al       9.05461347      13.11244364       9.27698242
Al       9.01363007      15.12701460      11.52191749
Al      11.22041831      13.25112618      11.52087255
Al      11.09094458      15.12303475       9.25253384
Al       9.05000000      13.10000000      13.76399437
Al       9.05000000      15.12500000      15.97870705
Al      11.07500000      13.10000000      15.97870705
Al      11.07500000      15.12500000      13.76399437
Al       9.05000000      17.15000000       5.00000000
Al       9.05000000      19.17500000       7.02500000
Al      11.07500000      17.15000000       7.02500000
Al      11.07500000      19.17500000       5.00000000
Al       9.07151622      17.12823683       9.27487751
Al       9.14507014      19.07992986      11.52343137
Al      11.23546816      16.98953184      11.51902108
Al      11.09676317      19.15348378       9.27487751
Al       9.05000000      17.15000000      13.76399437
Al       9.05000000      19.17500000      15.97870705
Al      11.07500000      17.15000000      15.97870705
Al      11.07500000      19.17500000      13.76399437
Al       9.05000000      21.20000000       5.00000000
Al       9.05000000      23.22500000       7.02500000
Al      11.07500000      21.20000000       7.02500000
Al      11.07500000      23.22500000       5.00000000
Al       9.08661397      21.16325000       9.27081311
Al       9.03644025      23.30710440      11.53286791
Al      11.05989039      21.21686047      11.51079872
Al      11.05744647      23.31790268       9.26394053
Al       9.05000000      21.20000000      13.76399437
Al       9.05000000      23.22500000      15.97870705
Al      11.07500000      21.20000000      15.97870705
Al      11.07500000      23.22500000      13.76399437
Al      13.10000000       5.00000000       5.00000000
Al      13.10000000       7.02500000       7.02500000
Al      15.12500000       5.00000000       7.02500000
Al      15.12500000       7.02500000       5.00000000
Al      13.09510029       4.91041683       9.26368910
Al      13.09412312       7.01115052      11.50804245
Al      15.12957626       4.91007693      11.52282395
Al      15.13351295       7.00865147       9.27686826
Al      13.10000000       5.00000000      13.76399437
Al      13.10000000       7.02500000      15.97870705
Al      15.12500000       5.00000000      15.97870705
Al      15.12500000       7.02500000      13.76399437
Al      13.10000000       9.05000000       5.00000000
Al      13.10000000      11.07500000       7.02500000
Al      15.12500000       9.05000000       7.02500000
Al      15.12500000      11.07500000       5.00000000
Al      13.09778889       9.03382672       9.26427233
Al      13.10328111      11.04483687      11.52196445
Al      15.13422233       9.02750497      11.52031886
Al      15.10837800      11.08738528       9.27854950
Al      13.10000000       9.05000000      13.76399437
Al      13.10000000      11.07500000      15.97870705
Al      15.12500000       9.05000000      15.97870705
Al      15.12500000      11.07500000      13.76399437
Al      13.10000000      13.10000000       5.00000000
Al      13.10000000      15.12500000       7.02500000
Al      15.12500000      13.10000000       7.02500000
Al      15.12500000      15.12500000       5.00000000
Al      13.09972545      13.12249822       9.25516682
Al      14.97255207      13.25244793      11.52146312
Al      15.10250178      15.12527455       9.25516682
Al      13.10000000      13.10000000      13.76399437
Al      13.10000000      15.12500000      15.97870705
Al      15.12500000      13.10000000      15.97870705
Al      15.12500000      15.12500000      13.76399437
Al      13.10000000      17.15000000       5.00000000
Al      13.10000000      19.17500000       7.02500000
Al      15.12500000      17.15000000       7.02500000
Al      15.12500000      19.17500000       5.00000000
Al      13.10196525      17.13405542       9.25253384
Al      13.09798540      19.21136993      11.52191749
Al      14.97387382      17.00458169      11.52087255
Al      15.11255636      19.17038653       9.27698242
Al      13.10000000      17.15000000      13.76399437
Al      13.10000000      19.17500000      15.97870705
Al      15.12500000      17.15000000      15.97870705
Al      15.12500000      19.17500000      13.76399437
Al      13.10000000      21.20000000       5.00000000
Al      13.10000000      23.22500000       7.02500000
Al      15.12500000      21.20000000       7.02500000
Al      15.12500000      23.22500000       5.00000000
Al      13.09388126      21.21709264       9.27560738
Al      13.09526429      23.31513475      11.52214210
Al      15.13765554      21.22338102      11.50831893
Al      15.13122124      23.31861284       9.26273435
Al      13.10000000      21.20000000      13.76399437
Al      13.10000000      23.22500000      15.97870705
Al      15.12500000      21.20000000      15.97870705
Al      15.12500000      23.22500000      13.76399437
Al      17.15000000       5.00000000       5.00000000
Al      17.15000000       7.02500000       7.02500000
Al      19.17500000       5.00000000       7.02500000
Al      19.17500000       7.02500000       5.00000000
Al      17.16700732       4.90732403       9.26432968
Al      17.16242136       7.01182326      11.51074637
Al      19.18676389       4.92089416      11.53267165
Al      19.14329647       7.05584883       9.26927585
Al      17.15000000       5.00000000      13.76399437
Al      17.15000000       7.02500000      15.97870705
Al      19.17500000       5.00000000      15.97870705
Al      19.17500000       7.02500000      13.76399437
Al      17.15000000       9.05000000       5.00000000
Al      17.15000000      11.07500000       7.02500000
Al      19.17500000       9.05000000       7.02500000
Al      19.17500000      11.07500000       5.00000000
Al      17.13369100       9.06537747       9.26784377
Al      17.08147549      11.14352451      11.52228305
Al      19.11599726       9.10900274      11.52193159
Al      19.15962253      11.09130900       9.26784377
Al      17.15000000       9.05000000      13.76399437
Al      17.15000000      11.07500000      15.97870705
Al      19.17500000       9.05000000      15.97870705
Al      19.17500000      11.07500000      13.76399437
Al      17.15000000      13.10000000       5.00000000
Al      17.15000000      15.12500000       7.02500000
Al      19.17500000      13.10000000       7.02500000
Al      19.17500000      15.12500000       5.00000000
Al      17.13761472      13.11662200       9.27854950
Al      17.18016313      15.12171889      11.52196445
Al      19.19749503      13.09077767      11.52031886
Al      19.19117328      15.12721111       9.26427233
Al      17.15000000      13.10000000      13.76399437
Al      17.15000000      15.12500000      15.97870705
Al      19.17500000      13.10000000      15.97870705
Al      19.17500000      15.12500000      13.76399437
Al      17.15000000      17.15000000       5.00000000
Al      17.15000000      19.17500000       7.02500000
Al      19.17500000      17.15000000       7.02500000
Al      19.17500000      19.17500000       5.00000000
Al      17.12533053      17.12817518       9.27920269
Al      17.08216641      19.11035929      11.52396089
Al      19.17993003      17.14907780      11.52187188
Al      19.13079604      19.13406818       9.26722264
Al      17.15000000      17.15000000      13.76399437
Al      17.15000000      19.17500000      15.97870705
Al      19.17500000      17.15000000      15.97870705
Al      19.17500000      19.17500000      13.76399437
Al      17.15000000      21.20000000       5.00000000
Al      17.15000000      23.22500000       7.02500000
Al      19.17500000      21.20000000       7.02500000
Al      19.17500000      23.22500000       5.00000000
Al      17.14756340      21.19740064       9.27737742
Al      17.16844143      23.32155584      11.52202849
Al      19.12024101      21.14888935      11.51733487
Al      19.18002549      23.29175446       9.25458907
Al      17.15000000      21.20000000      13.76399437
Al      17.15000000      23.22500000      15.97870705
Al      19.17500000      21.20000000      15.97870705
Al      19.17500000      23.22500000      13.76399437
Al      21.20000000       5.00000000       5.00000000
Al      21.20000000       7.02500000       7.02500000
Al      23.22500000       5.00000000       7.02500000
Al      23.22500000       7.02500000       5.00000000
Al      21.12375243       4.99259932       9.24818561
Al      21.10574142       7.11925858      11.50371830
Al      23.09997613       5.12502387      11.47813732
Al      23.23240068       7.10124757       9.24818561
Al      21.20000000       5.00000000      13.76399437
Al      21.20000000       7.02500000      15.97870705
Al      23.22500000       5.00000000      15.97870705
Al      23.22500000       7.02500000      13.76399437
Al      21.20000000       9.05000000       5.00000000
Al      21.20000000      11.07500000       7.02500000
Al      23.22500000       9.05000000       7.02500000
Al      23.22500000      11.07500000       5.00000000
Al      21.16915117       9.08170353       9.26927585
Al      21.21317674      11.06257864      11.51074637
Al      23.30410584       9.03823611      11.53267165
Al      23.31767597      11.05799268       9.26432968
Al      21.20000000       9.05000000      13.76399437
Al      21.20000000      11.07500000      15.97870705
Al      23.22500000       9.05000000      15.97870705
Al      23.22500000      11.07500000      13.76399437
Al      21.20000000      13.10000000       5.00000000
Al      21.20000000      15.12500000       7.02500000
Al      23.22500000      13.10000000       7.02500000
Al      23.22500000      15.12500000       5.00000000
Al      21.21634853      13.09148705       9.27686826
Al      21.21384948      15.13087688      11.50804245
Al      23.31492307      13.09542374      11.52282395
Al      23.31458317      15.12989971       9.26368910
Al      21.20000000      13.10000000      13.76399437
Al      21.20000000      15.12500000      15.97870705
Al      23.22500000      13.10000000      15.97870705
Al      23.22500000      15.12500000      13.76399437
Al      21.20000000      17.15000000       5.00000000
Al      21.20000000      19.17500000       7.02500000
Al      23.22500000      17.15000000       7.02500000
Al      23.22500000      19.17500000       5.00000000
Al      21.20974162      17.16122871       9.27449868
Al      21.17950168      19.15282206      11.51745003
Al      23.31479289      17.16520888      11.52190583
Al      23.30418316      19.18561221       9.25376455
Al      21.20000000      17.15000000      13.76399437
Al      21.20000000      19.17500000      15.97870705
Al      23.22500000      17.15000000      15.97870705
Al      23.22500000      19.17500000      13.76399437
Al      21.20000000      21.20000000       5.00000000
Al      21.20000000      23.22500000       7.02500000
Al      23.22500000      21.20000000       7.02500000
Al      23.22500000      23.22500000       5.00000000
Al      21.11334791      21.11112865       9.28380664
Al      21.11615943      23.21860486      11.53753246
Al      23.24275944      21.12655316      11.53950953
Al      23.10308031      23.10534731       9.31152860
Al      21.20000000      21.20000000      13.76399437
Al      21.20000000      23.22500000      15.97870705
Al      23.22500000      21.20000000      15.97870705
Al      23.22500000      23.22500000      13.76399437
