299
Lattice="28.224999999999998 0.0 0.0 0.0 28.224999999999998 0.0 0.0 0.0 20.125" Properties=species:S:1:pos:R:3:forces:R:3 energy=-16447.941052763465 pbc="T T T"
Al       5.00000000       5.00000000       5.00000000       0.36843553       0.36838535       0.13596944
Al       5.00000000       7.02500000       7.02500000      -0.10850276       0.49977753       1.12870562
Al       7.02500000       5.00000000       7.02500000       0.47471845      -0.11160714       1.12543527
Al       7.02500000       7.02500000       5.00000000       0.32789010       0.33160310      -0.68964064
Al       5.33835228       5.34665514       9.45729500      -0.04823483      -0.03825444       0.02628855
Al       5.22651580       7.25205923      11.79349164      -0.01955553       0.00006872      -0.00914330
Al       7.18508136       5.06866250      11.81611610      -0.01384295      -0.01697078      -0.00474690
Al       7.28406547       7.27575253       9.39518900      -0.00045652       0.00576109       0.01236353
Al       5.00000000       5.00000000      14.15939849       0.75704723       0.80319054      -0.46770329
Al       5.00000000       7.02500000      16.48708377       0.21354220       0.47543121      -0.77134133
Al       7.02500000       5.00000000      16.48708377       0.47262146       0.20630110      -0.78285066
Al       7.02500000       7.02500000      14.15939849       0.47550213       0.44937092      -0.07055542
Al       5.00000000       9.05000000       5.00000000      -0.17314085      -0.02935531      -0.30423784
Al       5.00000000      11.07500000       7.02500000      -0.27146192       0.01405459       1.25150079
Al       7.02500000       9.05000000       7.02500000       0.39033583       0.08459687       1.35418263
Al       7.02500000      11.07500000       5.00000000       0.33601284      -0.00639064      -0.73680615
Al       5.04169358       9.05958977       9.35044289      -0.01471162      -0.00031597       0.01273002
Al       4.99856870      11.03814345      11.76210459      -0.00375057       0.01534643      -0.00947129
Al       7.25041447       9.26379856      11.77073350       0.00619027       0.01330420      -0.00451264
Al       7.09365620      11.08715800       9.36138721       0.00739451       0.01735658       0.01724577
Al       5.00000000       9.05000000      14.15939849       0.07637904       0.12446686      -0.11336438
Al       5.00000000      11.07500000      16.48708377       0.10162240      -0.01340399      -0.67952594
Al       7.02500000       9.05000000      16.48708377       0.34197098      -0.03585947      -0.52014235
Al       7.02500000      11.07500000      14.15939849       0.37123725       0.07945164      -0.18657674
Al       5.00000000      13.10000000       5.00000000      -0.17248829       0.00019792      -0.30818370
Al       5.00000000      15.12500000       7.02500000      -0.27026332       0.02792996       1.30871740
Al       7.02500000      13.10000000       7.02500000       0.33442746       0.02911127       1.47172736
Al       7.02500000      15.12500000       5.00000000       0.33975250       0.00952007      -0.73451150
Al       5.03416406      13.09356207       9.37625209      -0.00958402       0.01216745       0.01643701
Al       5.06641519      15.13446578      11.76375760       0.00462007       0.00277929      -0.01109633
Al       7.06812240      13.05638149      11.76805901       0.01437846       0.01847112      -0.00334563
Al       7.07229809      15.14396763       9.37205790       0.00434297      -0.00517634       0.02244953
Al       5.00000000      13.10000000      14.15939849       0.00500204      -0.01889385      -0.33471304
Al       5.00000000      15.12500000      16.48708377       0.10508467       0.00631557      -0.67720618
Al       7.02500000      13.10000000      16.48708377       0.34573334      -0.00023546      -0.52117936
Al       7.02500000      15.12500000      14.15939849       0.33204803       0.01753832      -0.27114755
Al       5.00000000      17.15000000       5.00000000      -0.17012726       0.01778615      -0.30479386
Al       5.00000000      19.17500000       7.02500000      -0.23713175      -0.16058565       1.02250124
Al       7.02500000      17.15000000       7.02500000       0.32339768      -0.05815427       1.39334503
Al       7.02500000      19.17500000       5.00000000       0.33905965       0.03457086      -0.72451888
Al       5.01238416      17.17995035       9.38001469      -0.00922849      -0.01030800       0.01551636
Al       5.01083905      19.22200740      11.77911815      -0.00017570       0.00355175      -0.00091804
Al       7.06654913      17.21371521      11.77091577       0.01780472      -0.00823422      -0.00495423
Al       7.16713194      19.06410171       9.34307978       0.00521543      -0.00336912       0.01756007
Al       5.00000000      17.15000000      14.15939849       0.00338579       0.03987022      -0.31960755
Al       5.00000000      19.17500000      16.48708377       0.10692582       0.03521253      -0.68364216
Al       7.02500000      17.15000000      16.48708377       0.34762296       0.01397225      -0.52141370
Al       7.02500000      19.17500000      14.15939849       0.39835373      -0.09073133      -0.09028002
Al       5.00000000      21.20000000       5.00000000      -0.06652771      -0.46166847      -0.20026269
Al       5.00000000      23.22500000       7.02500000       0.41933764      -0.41933764       1.12078964
Al       7.02500000      21.20000000       7.02500000       0.47640764      -0.47640764       1.22758465
Al       7.02500000      23.22500000       5.00000000       0.46166847       0.06652771      -0.20026269
Al       5.13449438      21.01344271       9.31340908      -0.02283786       0.01861087       0.02610370
Al       5.45987920      22.76512080      11.68408154      -0.02560853       0.02560853      -0.01787668
Al       7.42248949      20.80251051      11.73190870       0.02541146      -0.02541146       0.00499467
Al       7.21155729      23.09050562       9.31340908      -0.01861087       0.02283786       0.02610370
Al       5.00000000      21.20000000      14.15939849       0.19512197      -0.53542823      -0.06519357
Al       5.00000000      23.22500000      16.48708377       0.70315058      -0.70315058      -0.77583694
Al       7.02500000      21.20000000      16.48708377       0.33928571      -0.33928571      -0.56557063
Al       7.02500000      23.22500000      14.15939849       0.53542823      -0.19512197      -0.06519357
Al       9.05000000       5.00000000       5.00000000      -0.03586020      -0.17638896      -0.30621387
Al       9.05000000       7.02500000       7.02500000       0.05864686       0.36624457       1.35499172
Al      11.07500000       5.00000000       7.02500000      -0.02199584      -0.28039562       1.27735821
Al      11.07500000       7.02500000       5.00000000      -0.01647282       0.33680863      -0.74319815
Al       9.03142563       5.00586113       9.35957269      -0.00502156      -0.01443972       0.00547931
Al       9.09452326       7.12358654      11.79207809       0.00087933       0.01313485      -0.00447090
Al      11.05168870       5.03262262      11.76288772       0.00868026      -0.00742872      -0.01057237
Al      11.03304264       7.07177748       9.37147982       0.00431338       0.01488447       0.02091104
Al       9.05000000       5.00000000      14.15939849       0.10807561       0.02737287      -0.09024309
Al       9.05000000       7.02500000      16.48708377      -0.04075854       0.34371492      -0.52235495
Al      11.07500000       5.00000000      16.48708377      -0.01927639       0.09973236      -0.67581189
Al      11.07500000       7.02500000      14.15939849       0.00184456       0.31665814      -0.19966513
Al       9.05000000       9.05000000       5.00000000      -0.03707540      -0.02845026      -0.79911397
Al       9.05000000      11.07500000       7.02500000       0.06531181       0.10220112       1.38335442
Al      11.07500000       9.05000000       7.02500000       0.05642155       0.04477564       1.39830492
Al      11.07500000      11.07500000       5.00000000      -0.01587804      -0.00269488      -0.79410647
Al       9.20232961       9.21730331       9.37503602       0.00890750       0.02139531       0.01552365
Al       9.29465659      11.29578365      11.76888323      -0.00154901       0.01484631      -0.00734037
Al      11.08459452       9.08868060      11.78385228       0.01303398       0.01544603      -0.00545822
Al      11.17388935      11.16410351       9.38001236       0.01037255       0.01480767       0.02418333
Al       9.05000000       9.05000000      14.15939849       0.07848723       0.10914172      -0.10871616
Al       9.05000000      11.07500000      16.48708377      -0.04030917      -0.00937341      -0.46157445
Al      11.07500000       9.05000000      16.48708377      -0.01964444      -0.03566581      -0.46335426
Al      11.07500000      11.07500000      14.15939849       0.14328952       0.13129770      -0.20584026
Al       9.05000000      13.10000000       5.00000000      -0.03416206       0.00607339      -0.79135379
Al       9.05000000      15.12500000       7.02500000      -0.07483171      -0.02928892       1.29103024
Al      11.07500000      13.10000000       7.02500000      -0.07332356      -0.06454824       1.20721547
Al      11.07500000      15.12500000       5.00000000      -0.01292131       0.01120869      -0.75847902
Al       9.08550643      13.12160124       9.36969204       0.00531372       0.02084638       0.01878745
Al       9.04448935      15.14387829      11.76723631       0.01219493      -0.00537505      -0.00550309
Al      11.40410085      13.41968068      11.72448478      -0.02197545      -0.02273828      -0.00958699
Al      11.10276555      15.10371172       9.25528185      -0.00394360      -0.00527067       0.02268566
Al       9.05000000      13.10000000      14.15939849       0.10138673       0.14375103      -0.23027500
Al       9.05000000      15.12500000      16.48708377      -0.03711779       0.00830434      -0.46517350
Al      11.07500000      13.10000000      16.48708377      -0.01813094       0.00288416      -0.45695322
Al      11.07500000      15.12500000      14.15939849      -0.04573983      -0.01542768       0.17007534
Al       9.05000000      17.15000000       5.00000000      -0.03239191       0.01471313      -0.78337271
Al       9.05000000      19.17500000       7.02500000       0.09968624      -0.09968624       1.27170454
Al      11.07500000      17.15000000       7.02500000      -0.02935226       0.02935226       1.16711776
Al      11.07500000      19.17500000       5.00000000      -0.01471313       0.03239191      -0.78337271
Al       9.13593976      17.08072118       9.35083227       0.00434299      -0.01426331       0.02267198
Al       9.42325773      18.80174227      11.74792296       0.02243841      -0.02243841      -0.00627275
Al      11.51618040      16.70881960      11.70730335      -0.00779391       0.00779391      -0.01524908
Al      11.14427882      19.08906024       9.35083227       0.01426331      -0.00434299       0.02267198
Al       9.05000000      17.15000000      14.15939849       0.09766568      -0.16219847      -0.12164411
Al       9.05000000      19.17500000      16.48708377      -0.03488031       0.03488031      -0.46168264
Al      11.07500000      17.15000000      16.48708377      -0.01563426       0.01563426      -0.45761473
Al      11.07500000      19.17500000      14.15939849       0.16219847      -0.09766568      -0.12164411
Al       9.05000000      21.20000000       5.00000000      -0.03457086      -0.33905965      -0.72451888
Al       9.05000000      23.22500000       7.02500000       0.16058565       0.23713175       1.02250124
Al      11.07500000      21.20000000       7.02500000       0.05815427      -0.32339768       1.39334503
Al      11.07500000      23.22500000       5.00000000      -0.01778615       0.17012726      -0.30479386
Al       9.16089829      21.05786806       9.34307978       0.00336912      -0.00521543       0.01756007
Al       9.00299260      23.21416095      11.77911815      -0.00355175       0.00017570      -0.00091804
Al      11.01128479      21.15845087      11.77091577       0.00823422      -0.01780472      -0.00495423
Al      11.04504965      23.21261584       9.38001469       0.01030800       0.00922849       0.01551636
Al       9.05000000      21.20000000      14.15939849       0.09073133      -0.39835373      -0.09028002
Al       9.05000000      23.22500000      16.48708377      -0.03521253      -0.10692582      -0.68364216
Al      11.07500000      21.20000000      16.48708377      -0.01397225      -0.34762296      -0.52141370
Al      11.07500000      23.22500000      14.15939849      -0.03987022      -0.00338579      -0.31960755
Al      13.10000000       5.00000000       5.00000000      -0.00673301      -0.17891737      -0.31556117
Al      13.10000000       7.02500000       7.02500000      -0.01554612       0.31896193       1.47276918
Al      15.12500000       5.00000000       7.02500000       0.01985546      -0.28368382       1.30945605
Al      15.12500000       7.02500000       5.00000000       0.00221516       0.33491227      -0.74393555
Al      13.09215017       5.05566279       9.37683689      -0.00035241      -0.01778558       0.01763269
Al      13.08413240       7.08741448      11.76972351       0.00375249       0.01769035      -0.00335698
Al      15.13229443       5.05864823      11.76355989      -0.00775920      -0.00921636      -0.01235847
Al      15.15771122       7.07107747       9.37085845      -0.01250933       0.00451680       0.01977692
Al      13.10000000       5.00000000      14.15939849      -0.01980881       0.01039060      -0.33020584
Al      13.10000000       7.02500000      16.48708377      -0.00947422       0.34283284      -0.51619042
Al      15.12500000       5.00000000      16.48708377       0.00147855       0.09754090      -0.67252241
Al      15.12500000       7.02500000      14.15939849       0.02075703       0.31495001      -0.24229454
Al      13.10000000       9.05000000       5.00000000      -0.00856085      -0.03083526      -0.80266568
Al      13.10000000      11.07500000       7.02500000      -0.00436630      -0.06137633       1.32417453
Al      15.12500000       9.05000000       7.02500000      -0.05180461       0.01789063       1.41283566
Al      15.12500000      11.07500000       5.00000000      -0.00332588      -0.00507776      -0.79519920
Al      13.09220444       9.04271778       9.36807175       0.01041577       0.01662140       0.02283197
Al      13.13513892      11.06056576      11.77258115       0.01078551       0.02308320      -0.01478644
Al      15.17355820       9.03237379      11.77345007      -0.01852155       0.02172878      -0.00403134
Al      15.07012681      11.11865441       9.36386870      -0.01748116       0.02462344       0.02639376
Al      13.10000000       9.05000000      14.15939849       0.02036498      -0.01232047      -0.20997330
Al      13.10000000      11.07500000      16.48708377      -0.01106988      -0.00773366      -0.46232647
Al      15.12500000       9.05000000      16.48708377      -0.00047532      -0.03721211      -0.45897074
Al      15.12500000      11.07500000      14.15939849      -0.13468250       0.10375800      -0.19494178
Al      13.10000000      13.10000000       5.00000000      -0.01077927       0.00951519      -0.76101395
Al      13.10000000      15.12500000       7.02500000      -0.01553447       0.01553447       0.93711955
Al      15.12500000      13.10000000       7.02500000       0.05931073      -0.05931073       1.20288327
Al      15.12500000      15.12500000       5.00000000      -0.00951519       0.01077927      -0.76101395
Al      13.11428387      13.13921295       9.26442443      -0.00224486      -0.00454764       0.02346920
Al      14.74505322      13.47994678      11.72375592       0.00735513      -0.00735513      -0.00939918
Al      15.08578705      15.11071613       9.26442443       0.00454764       0.00224486       0.02346920
Al      13.10000000      13.10000000      14.15939849      -0.03636362      -0.00160588       0.15343340
Al      13.10000000      15.12500000      16.48708377      -0.01072386       0.01072386      -0.42842857
Al      15.12500000      13.10000000      16.48708377      -0.00343217       0.00343217      -0.45549276
Al      15.12500000      15.12500000      14.15939849       0.00160588       0.03636362       0.15343340
Al      13.10000000      17.15000000       5.00000000      -0.01120869       0.01292131      -0.75847902
Al      13.10000000      19.17500000       7.02500000       0.02928892       0.07483171       1.29103024
Al      15.12500000      17.15000000       7.02500000       0.06454824       0.07332356       1.20721547
Al      15.12500000      19.17500000       5.00000000      -0.00607339       0.03416206      -0.79135379
Al      13.12128828      17.12223445       9.25528185       0.00527067       0.00394360       0.02268566
Al      13.08112171      19.18051065      11.76723631       0.00537505      -0.01219493      -0.00550309
Al      14.80531932      16.82089915      11.72448478       0.02273828       0.02197545      -0.00958699
Al      15.10339876      19.13949357       9.36969204      -0.02084638      -0.00531372       0.01878745
Al      13.10000000      17.15000000      14.15939849       0.01542768       0.04573983       0.17007534
Al      13.10000000      19.17500000      16.48708377      -0.00830434       0.03711779      -0.46517350
Al      15.12500000      17.15000000      16.48708377      -0.00288416       0.01813094      -0.45695322
Al      15.12500000      19.17500000      14.15939849      -0.14375103      -0.10138673      -0.23027500
Al      13.10000000      21.20000000       5.00000000      -0.00952007      -0.33975250      -0.73451150
Al      13.10000000      23.22500000       7.02500000      -0.02792996       0.27026332       1.30871740
Al      15.12500000      21.20000000       7.02500000      -0.02911127      -0.33442746       1.47172736
Al      15.12500000      23.22500000       5.00000000      -0.00019792       0.17248829      -0.30818370
Al      13.08103237      21.15270191       9.37205790       0.00517634      -0.00434297       0.02244953
Al      13.09053422      23.15858481      11.76375760      -0.00277929      -0.00462007      -0.01109633
Al      15.16861851      21.15687760      11.76805901      -0.01847112      -0.01437846      -0.00334563
Al      15.13143793      23.19083594       9.37625209      -0.01216745       0.00958402       0.01643701
Al      13.10000000      21.20000000      14.15939849      -0.01753832      -0.33204803      -0.27114755
Al      13.10000000      23.22500000      16.48708377      -0.00631557      -0.10508467      -0.67720618
Al      15.12500000      21.20000000      16.48708377       0.00023546      -0.34573334      -0.52117936
Al      15.12500000      23.22500000      14.15939849       0.01889385      -0.00500204      -0.33471304
Al      17.15000000       5.00000000       5.00000000       0.01562937      -0.18118064      -0.31158985
Al      17.15000000       7.02500000       7.02500000      -0.03829161       0.31599584       1.39958786
Al      19.17500000       5.00000000       7.02500000      -0.13704621      -0.24802885       1.03806183
Al      19.17500000       7.02500000       5.00000000       0.03640097       0.33196780      -0.73618322
Al      17.18196331       5.00745468       9.37803476      -0.01389529      -0.02142104       0.01532794
Al      17.21162514       7.05173462      11.77293515      -0.01267489       0.01617834      -0.00467712
Al      19.21695226       5.00358784      11.78076348       0.00282464      -0.01205353       0.00037167
Al      19.07292380       7.15855341       9.34967015      -0.00998508       0.00602173       0.02044794
Al      17.15000000       5.00000000      14.15939849       0.03159965      -0.01266034      -0.30322575
Al      17.15000000       7.02500000      16.48708377       0.01172161       0.34136343      -0.51396849
Al      19.17500000       5.00000000      16.48708377       0.03593861       0.09877218      -0.67911244
Al      19.17500000       7.02500000      14.15939849      -0.06298144       0.38016786      -0.11736577
Al      17.15000000       9.05000000       5.00000000       0.01196090      -0.03429838      -0.80033960
Al      17.15000000      11.07500000       7.02500000      -0.08085257       0.08085257       1.38935697
Al      19.17500000       9.05000000       7.02500000      -0.08161118       0.08161118       1.29571550
Al      19.17500000      11.07500000       5.00000000       0.03429838      -0.01196090      -0.80033960
Al      17.08687200       9.13694050       9.35518629      -0.02166396       0.01286954       0.02118281
Al      16.87339107      11.35160893      11.75792713      -0.02421595       0.02421595      -0.01571912
Al      18.90571665       9.31928335      11.75726363      -0.03091208       0.03091208      -0.00326277
Al      19.08805950      11.13812800       9.35518629      -0.01286954       0.02166396       0.02118281
Al      17.15000000       9.05000000      14.15939849      -0.09228491       0.06756834      -0.13859468
Al      17.15000000      11.07500000      16.48708377       0.01060586      -0.01060586      -0.45559921
Al      19.17500000       9.05000000      16.48708377       0.03728968      -0.03728968      -0.45514847
Al      19.17500000      11.07500000      14.15939849      -0.06756834       0.09228491      -0.13859468
Al      17.15000000      13.10000000       5.00000000       0.00507776       0.00332588      -0.79519920
Al      17.15000000      15.12500000       7.02500000       0.06137633       0.00436630       1.32417453
Al      19.17500000      13.10000000       7.02500000      -0.01789063       0.05180461       1.41283566
Al      19.17500000      15.12500000       5.00000000       0.03083526       0.00856085      -0.80266568
Al      17.10634559      13.15487319       9.36386870      -0.02462344       0.01748116       0.02639376
Al      17.16443424      15.08986108      11.77258115      -0.02308320      -0.01078551      -0.01478644
Al      19.19262621      13.05144180      11.77345007      -0.02172878       0.01852155      -0.00403134
Al      19.18228222      15.13279556       9.36807175      -0.01662140      -0.01041577       0.02283197
Al      17.15000000      13.10000000      14.15939849      -0.10375800       0.13468250      -0.19494178
Al      17.15000000      15.12500000      16.48708377       0.00773366       0.01106988      -0.46232647
Al      19.17500000      13.10000000      16.48708377       0.03721211       0.00047532      -0.45897074
Al      19.17500000      15.12500000      14.15939849       0.01232047      -0.02036498      -0.20997330
Al      17.15000000      17.15000000       5.00000000       0.00269488       0.01587804      -0.79410647
Al      17.15000000      19.17500000       7.02500000      -0.10220112      -0.06531181       1.38335442
Al      19.17500000      17.15000000       7.02500000      -0.04477564      -0.05642155       1.39830492
Al      19.17500000      19.17500000       5.00000000       0.02845026       0.03707540      -0.79911397
Al      17.06089649      17.05111065       9.38001236      -0.01480767      -0.01037255       0.02418333
Al      16.92921635      18.93034341      11.76888323      -0.01484631       0.00154901      -0.00734037
Al      19.13631940      17.14040548      11.78385228      -0.01544603      -0.01303398      -0.00545822
Al      19.00769669      19.02267039       9.37503602      -0.02139531      -0.00890750       0.01552365
Al      17.15000000      17.15000000      14.15939849      -0.13129770      -0.14328952      -0.20584026
Al      17.15000000      19.17500000      16.48708377       0.00937341       0.04030917      -0.46157445
Al      19.17500000      17.15000000      16.48708377       0.03566581       0.01964444      -0.46335426
Al      19.17500000      19.17500000      14.15939849      -0.10914172      -0.07848723      -0.10871616
Al      17.15000000      21.20000000       5.00000000       0.00639064      -0.33601284      -0.73680615
Al      17.15000000      23.22500000       7.02500000      -0.01405459       0.27146192       1.25150079
Al      19.17500000      21.20000000       7.02500000      -0.08459687      -0.39033583       1.35418263
Al      19.17500000      23.22500000       5.00000000       0.02935531       0.17314085      -0.30423784
Al      17.13784200      21.13134380       9.36138721      -0.01735658      -0.00739451       0.01724577
Al      17.18685655      23.22643130      11.76210459      -0.01534643       0.00375057      -0.00947129
Al      18.96120144      20.97458553      11.77073350      -0.01330420      -0.00619027      -0.00451264
Al      19.16541023      23.18330642       9.35044289       0.00031597       0.01471162       0.01273002
Al      17.15000000      21.20000000      14.15939849      -0.07945164      -0.37123725      -0.18657674
Al      17.15000000      23.22500000      16.48708377       0.01340399      -0.10162240      -0.67952594
Al      19.17500000      21.20000000      16.48708377       0.03585947      -0.34197098      -0.52014235
Al      19.17500000      23.22500000      14.15939849      -0.12446686      -0.07637904      -0.11336438
Al      21.20000000       5.00000000       5.00000000      -0.45662908      -0.07608117      -0.20686995
Al      21.20000000       7.02500000       7.02500000      -0.45615945       0.45615945       1.25460704
Al      23.22500000       5.00000000       7.02500000      -0.40640887       0.40640887       1.11926869
Al      23.22500000       7.02500000       5.00000000       0.07608117       0.45662908      -0.20686995
Al      21.02298738       5.12692452       9.32052791       0.02083938      -0.03300178       0.02011012
Al      20.87124908       7.35375092      11.73988137      -0.01888255       0.01888255       0.00507641
Al      22.81930191       5.40569809      11.68656378       0.03921571      -0.03921571      -0.01380842
Al      23.09807548       7.20201262       9.32052791       0.03300178      -0.02083938       0.02011012
Al      21.20000000       5.00000000      14.15939849      -0.50582255       0.18355552      -0.09510121
Al      21.20000000       7.02500000      16.48708377      -0.33462236       0.33462236      -0.56073851
Al      23.22500000       5.00000000      16.48708377      -0.69603385       0.69603385      -0.77921362
Al      23.22500000       7.02500000      14.15939849      -0.18355552       0.50582255      -0.09510121
Al      21.20000000       9.05000000       5.00000000      -0.33196780      -0.03640097      -0.73618322
Al      21.20000000      11.07500000       7.02500000      -0.31599584       0.03829161       1.39958786
Al      23.22500000       9.05000000       7.02500000       0.24802885       0.13704621       1.03806183
Al      23.22500000      11.07500000       5.00000000       0.18118064      -0.01562937      -0.31158985
Al      21.06644659       9.15207620       9.34967015      -0.00602173       0.00998508       0.02044794
Al      21.17326538      11.01337486      11.77293515      -0.01617834       0.01267489      -0.00467712
Al      23.22141216       9.00804774      11.78076348       0.01205353      -0.00282464       0.00037167
Al      23.21754532      11.04303669       9.37803476       0.02142104       0.01389529       0.01532794
Al      21.20000000       9.05000000      14.15939849      -0.38016786       0.06298144      -0.11736577
Al      21.20000000      11.07500000      16.48708377      -0.34136343      -0.01172161      -0.51396849
Al      23.22500000       9.05000000      16.48708377      -0.09877218      -0.03593861      -0.67911244
Al      23.22500000      11.07500000      14.15939849       0.01266034      -0.03159965      -0.30322575
Al      21.20000000      13.10000000       5.00000000      -0.33491227      -0.00221516      -0.74393555
Al      21.20000000      15.12500000       7.02500000      -0.31896193       0.01554612       1.47276918
Al      23.22500000      13.10000000       7.02500000       0.28368382      -0.01985546       1.30945605
Al      23.22500000      15.12500000       5.00000000       0.17891737       0.00673301      -0.31556117
Al      21.15392253      13.06728878       9.37085845      -0.00451680       0.01250933       0.01977692
Al      21.13758552      15.14086760      11.76972351      -0.01769035      -0.00375249      -0.00335698
Al      23.16635177      13.09270557      11.76355989       0.00921636       0.00775920      -0.01235847
Al      23.16933721      15.13284983       9.37683689       0.01778558       0.00035241       0.01763269
Al      21.20000000      13.10000000      14.15939849      -0.31495001      -0.02075703      -0.24229454
Al      21.20000000      15.12500000      16.48708377      -0.34283284       0.00947422      -0.51619042
Al      23.22500000      13.10000000      16.48708377      -0.09754090      -0.00147855      -0.67252241
Al      23.22500000      15.12500000      14.15939849      -0.01039060       0.01980881      -0.33020584
Al      21.20000000      17.15000000       5.00000000      -0.33680863       0.01647282      -0.74319815
Al      21.20000000      19.17500000       7.02500000      -0.36624457      -0.05864686       1.35499172
Al      23.22500000      17.15000000       7.02500000       0.28039562       0.02199584       1.27735821
Al      23.22500000      19.17500000       5.00000000       0.17638896       0.03586020      -0.30621387
Al      21.15322252      17.19195736       9.37147982      -0.01488447      -0.00431338       0.02091104
Al      21.10141346      19.13047674      11.79207809      -0.01313485      -0.00087933      -0.00447090
Al      23.19237738      17.17331130      11.76288772       0.00742872      -0.00868026      -0.01057237
Al      23.21913887      19.19357437       9.35957269       0.01443972       0.00502156       0.00547931
Al      21.20000000      17.15000000      14.15939849      -0.31665814      -0.00184456      -0.19966513