299
Lattice="28.224999999999998 0.0 0.0 0.0 28.224999999999998 0.0 0.0 0.0 20.125" Properties=species:S:1:pos:R:3 energy=-16447.834207069092 pbc="T T T"
Al       5.00000000       5.00000000       5.00000000
Al       5.00000000       7.02500000       7.02500000
Al       7.02500000       5.00000000       7.02500000
Al       7.02500000       7.02500000       5.00000000
Al       5.29841377       5.30555471       9.45880466
Al       5.18226874       7.22394299      11.79517230
Al       7.17263130       5.06746086      11.81130919
Al       7.25046479       7.24444470       9.40304273
Al       5.00000000       5.00000000      14.15939849
Al       5.00000000       7.02500000      16.48708377
Al       7.02500000       5.00000000      16.48708377
Al       7.02500000       7.02500000      14.15939849
Al       5.00000000       9.05000000       5.00000000
Al       5.00000000      11.07500000       7.02500000
Al       7.02500000       9.05000000       7.02500000
Al       7.02500000      11.07500000       5.00000000
Al       5.03040217       9.05562777       9.36330268
Al       4.99577753      11.04454686      11.76451024
Al       7.21375507       9.22313980      11.77559818
Al       7.08669114      11.08489855       9.38057055
Al       5.00000000       9.05000000      14.15939849
Al       5.00000000      11.07500000      16.48708377
Al       7.02500000       9.05000000      16.48708377
Al       7.02500000      11.07500000      14.15939849
Al       5.00000000      13.10000000       5.00000000
Al       5.00000000      15.12500000       7.02500000
Al       7.02500000      13.10000000       7.02500000
Al       7.02500000      15.12500000       5.00000000
Al       5.02161294      13.09329370       9.38398579
Al       5.04570689      15.13033867      11.76475760
Al       7.05828941      13.06533523      11.77203330
Al       7.06269133      15.13748863       9.38408050
Al       5.00000000      13.10000000      14.15939849
Al       5.00000000      15.12500000      16.48708377
Al       7.02500000      13.10000000      16.48708377
Al       7.02500000      15.12500000      14.15939849
Al       5.00000000      17.15000000       5.00000000
Al       5.00000000      19.17500000       7.02500000
Al       7.02500000      17.15000000       7.02500000
Al       7.02500000      19.17500000       5.00000000
Al       5.00344216      17.17427691       9.38637167
Al       5.00311280      19.21117394      11.78233698
Al       7.05816180      17.19619001      11.77458976
Al       7.14681631      19.08178971       9.36723393
Al       5.00000000      17.15000000      14.15939849
Al       5.00000000      19.17500000      16.48708377
Al       7.02500000      17.15000000      16.48708377
Al       7.02500000      19.17500000      14.15939849
Al       5.00000000      21.20000000       5.00000000
Al       5.00000000      23.22500000       7.02500000
Al       7.02500000      21.20000000       7.02500000
Al       7.02500000      23.22500000       5.00000000
Al       5.11267122      21.03400898       9.33404319
Al       5.38720148      22.83779852      11.69099947
Al       7.35238293      20.87261707      11.74774828
Al       7.19099102      23.11232878       9.33404319
Al       5.00000000      21.20000000      14.15939849
Al       5.00000000      23.22500000      16.48708377
Al       7.02500000      21.20000000      16.48708377
Al       7.02500000      23.22500000      14.15939849
Al       9.05000000       5.00000000       5.00000000
Al       9.05000000       7.02500000       7.02500000
Al      11.07500000       5.00000000       7.02500000
Al      11.07500000       7.02500000       5.00000000
Al       9.03428881       5.00060755       9.36762750
Al       9.09490517       7.11413249      11.78837183
Al      11.05641200       5.02226608      11.76408409
Al      11.04651390       7.06854628       9.38387597
Al       9.05000000       5.00000000      14.15939849
Al       9.05000000       7.02500000      16.48708377
Al      11.07500000       5.00000000      16.48708377
Al      11.07500000       7.02500000      14.15939849
Al       9.05000000       9.05000000       5.00000000
Al       9.05000000      11.07500000       7.02500000
Al      11.07500000       9.05000000       7.02500000
Al      11.07500000      11.07500000       5.00000000
Al       9.18134806       9.19214448       9.38642329
Al       9.25393076      11.26134609      11.77490379
Al      11.08840432       9.08072318      11.78392908
Al      11.15591142      11.14944824       9.39496338
Al       9.05000000       9.05000000      14.15939849
Al       9.05000000      11.07500000      16.48708377
Al      11.07500000       9.05000000      16.48708377
Al      11.07500000      11.07500000      14.15939849
Al       9.05000000      13.10000000       5.00000000
Al       9.05000000      15.12500000       7.02500000
Al      11.07500000      13.10000000       7.02500000
Al      11.07500000      15.12500000       5.00000000
Al       9.07866092      13.12096183       9.38536947
Al       9.03813642      15.13293117      11.77432137
Al      11.38067323      13.39785566      11.73779680
Al      11.10141656      15.10523487       9.28770483
Al       9.05000000      13.10000000      14.15939849
Al       9.05000000      15.12500000      16.48708377
Al      11.07500000      13.10000000      16.48708377
Al      11.07500000      15.12500000      14.15939849
Al       9.05000000      17.15000000       5.00000000
Al       9.05000000      19.17500000       7.02500000
Al      11.07500000      17.15000000       7.02500000
Al      11.07500000      19.17500000       5.00000000
Al       9.12080728      17.08915778       9.37602151
Al       9.34930133      18.87569867      11.76364063
Al      11.45360747      16.77139253      11.72464048
Al      11.13584222      19.10419272       9.37602151
Al       9.05000000      17.15000000      14.15939849
Al       9.05000000      19.17500000      16.48708377
Al      11.07500000      17.15000000      16.48708377
Al      11.07500000      19.17500000      14.15939849
Al       9.05000000      21.20000000       5.00000000
Al       9.05000000      23.22500000       7.02500000
Al      11.07500000      21.20000000       7.02500000
Al      11.07500000      23.22500000       5.00000000
Al       9.14321029      21.07818369       9.36723393
Al       9.01382606      23.22188720      11.78233698
Al      11.02880999      21.16683820      11.77458976
Al      11.05072309      23.22155784       9.38637167
Al       9.05000000      21.20000000      14.15939849
Al       9.05000000      23.22500000      16.48708377
Al      11.07500000      21.20000000      16.48708377
Al      11.07500000      23.22500000      14.15939849
Al      13.10000000       5.00000000       5.00000000
Al      13.10000000       7.02500000       7.02500000
Al      15.12500000       5.00000000       7.02500000
Al      15.12500000       7.02500000       5.00000000
Al      13.09512794       5.03698930       9.38481753
Al      13.08930505       7.07923016      11.77123271
Al      15.12968406       5.04305012      11.76452619
Al      15.14746198       7.06649628       9.38410470
Al      13.10000000       5.00000000      14.15939849
Al      13.10000000       7.02500000      16.48708377
Al      15.12500000       5.00000000      16.48708377
Al      15.12500000       7.02500000      14.15939849
Al      13.10000000       9.05000000       5.00000000
Al      13.10000000      11.07500000       7.02500000
Al      15.12500000       9.05000000       7.02500000
Al      15.12500000      11.07500000       5.00000000
Al      13.09809384       9.04607742       9.38023596
Al      13.12817657      11.06067832      11.77543553
Al      15.15673363       9.03623845      11.77868433
Al      15.08111106      11.11256184       9.38497683
Al      13.10000000       9.05000000      14.15939849
Al      13.10000000      11.07500000      16.48708377
Al      15.12500000       9.05000000      16.48708377
Al      15.12500000      11.07500000      14.15939849
Al      13.10000000      13.10000000       5.00000000
Al      13.10000000      15.12500000       7.02500000
Al      15.12500000      13.10000000       7.02500000
Al      15.12500000      15.12500000       5.00000000
Al      13.11386932      13.13076884       9.29552422
Al      14.79601381      13.42898619      11.73981272
Al      15.09423116      15.11113068       9.29552422
Al      13.10000000      13.10000000      14.15939849
Al      13.10000000      15.12500000      16.48708377
Al      15.12500000      13.10000000      16.48708377
Al      15.12500000      15.12500000      14.15939849
Al      13.10000000      17.15000000       5.00000000
Al      13.10000000      19.17500000       7.02500000
Al      15.12500000      17.15000000       7.02500000
Al      15.12500000      19.17500000       5.00000000
Al      13.11976513      17.12358344       9.28770483
Al      13.09206883      19.18686358      11.77432137
Al      14.82714434      16.84432677      11.73779680
Al      15.10403817      19.14633908       9.38536947
Al      13.10000000      17.15000000      14.15939849
Al      13.10000000      19.17500000      16.48708377
Al      15.12500000      17.15000000      16.48708377
Al      15.12500000      19.17500000      14.15939849
Al      13.10000000      21.20000000       5.00000000
Al      13.10000000      23.22500000       7.02500000
Al      15.12500000      21.20000000       7.02500000
Al      15.12500000      23.22500000       5.00000000
Al      13.08751137      21.16230867       9.38408050
Al      13.09466133      23.17929311      11.76475760
Al      15.15966477      21.16671059      11.77203330
Al      15.13170630      23.20338706       9.38398579
Al      13.10000000      21.20000000      14.15939849
Al      13.10000000      23.22500000      16.48708377
Al      15.12500000      21.20000000      16.48708377
Al      15.12500000      23.22500000      14.15939849
Al      17.15000000       5.00000000       5.00000000
Al      17.15000000       7.02500000       7.02500000
Al      19.17500000       5.00000000       7.02500000
Al      19.17500000       7.02500000       5.00000000
Al      17.17463628       5.00230945       9.38545684
Al      17.19148176       7.05556769      11.77452987
Al      19.20462276       5.00352371      11.78220034
Al      19.08858015       7.14070524       9.37076254
Al      17.15000000       5.00000000      14.15939849
Al      17.15000000       7.02500000      16.48708377
Al      19.17500000       5.00000000      16.48708377
Al      19.17500000       7.02500000      14.15939849
Al      17.15000000       9.05000000       5.00000000
Al      17.15000000      11.07500000       7.02500000
Al      19.17500000       9.05000000       7.02500000
Al      19.17500000      11.07500000       5.00000000
Al      17.09562736       9.12202225       9.37732258
Al      16.92967578      11.29532422      11.76832951
Al      18.95813060       9.26686940      11.76913369
Al      19.10297775      11.12937264       9.37732258
Al      17.15000000       9.05000000      14.15939849
Al      17.15000000      11.07500000      16.48708377
Al      19.17500000       9.05000000      16.48708377
Al      19.17500000      11.07500000      14.15939849
Al      17.15000000      13.10000000       5.00000000
Al      17.15000000      15.12500000       7.02500000
Al      19.17500000      13.10000000       7.02500000
Al      19.17500000      15.12500000       5.00000000
Al      17.11243816      13.14388894       9.38497683
Al      17.16432168      15.09682343      11.77543553
Al      19.18876155      13.06826637      11.77868433
Al      19.17892258      15.12690616       9.38023596
Al      17.15000000      13.10000000      14.15939849
Al      17.15000000      15.12500000      16.48708377
Al      19.17500000      13.10000000      16.48708377
Al      19.17500000      15.12500000      14.15939849
Al      17.15000000      17.15000000       5.00000000
Al      17.15000000      19.17500000       7.02500000
Al      19.17500000      17.15000000       7.02500000
Al      19.17500000      19.17500000       5.00000000
Al      17.07555176      17.06908858       9.39496338
Al      16.96365391      18.97106924      11.77490379
Al      19.14427682      17.13659568      11.78392908
Al      19.03285552      19.04365194       9.38642329
Al      17.15000000      17.15000000      14.15939849
Al      17.15000000      19.17500000      16.48708377
Al      19.17500000      17.15000000      16.48708377
Al      19.17500000      19.17500000      14.15939849
Al      17.15000000      21.20000000       5.00000000
Al      17.15000000      23.22500000       7.02500000
Al      19.17500000      21.20000000       7.02500000
Al      19.17500000      23.22500000       5.00000000
Al      17.14010145      21.13830886       9.38057055
Al      17.18045314      23.22922247      11.76451024
Al      19.00186020      21.01124493      11.77559818
Al      19.16937223      23.19459783       9.36330268
Al      17.15000000      21.20000000      14.15939849
Al      17.15000000      23.22500000      16.48708377
Al      19.17500000      21.20000000      16.48708377
Al      19.17500000      23.22500000      14.15939849
Al      21.20000000       5.00000000       5.00000000
Al      21.20000000       7.02500000       7.02500000
Al      23.22500000       5.00000000       7.02500000
Al      23.22500000       7.02500000       5.00000000
Al      21.04168230       5.10644734       9.33853650
Al      20.92488399       7.30011601      11.75184848
Al      22.87777135       5.34722865      11.69340971
Al      23.11855266       7.18331770       9.33853650
Al      21.20000000       5.00000000      14.15939849
Al      21.20000000       7.02500000      16.48708377
Al      23.22500000       5.00000000      16.48708377
Al      23.22500000       7.02500000      14.15939849
Al      21.20000000       9.05000000       5.00000000
Al      21.20000000      11.07500000       7.02500000
Al      23.22500000       9.05000000       7.02500000
Al      23.22500000      11.07500000       5.00000000
Al      21.08429476       9.13641985       9.37076254
Al      21.16943231      11.03351824      11.77452987
Al      23.22147629       9.02037724      11.78220034
Al      23.22269055      11.05036372       9.38545684
Al      21.20000000       9.05000000      14.15939849
Al      21.20000000      11.07500000      16.48708377
Al      23.22500000       9.05000000      16.48708377
Al      23.22500000      11.07500000      14.15939849
Al      21.20000000      13.10000000       5.00000000
Al      21.20000000      15.12500000       7.02500000
Al      23.22500000      13.10000000       7.02500000
Al      23.22500000      15.12500000       5.00000000
Al      21.15850372      13.07753802       9.38410470
Al      21.14576984      15.13569495      11.77123271
Al      23.18194988      13.09531594      11.76452619
Al      23.18801070      15.12987206       9.38481753
Al      21.20000000      13.10000000      14.15939849
Al      21.20000000      15.12500000      16.48708377
Al      23.22500000      13.10000000      16.48708377
Al      23.22500000      15.12500000      14.15939849
Al      21.20000000      17.15000000       5.00000000
Al      21.20000000      19.17500000       7.02500000
Al      23.22500000      17.15000000       7.02500000
Al      23.22500000      19.17500000       5.00000000
Al      21.15645372      17.17848610       9.38387597
Al      21.11086751      19.13009483      11.78837183
Al      23.20273392      17.16858800      11.76408409
Al      23.22439245      19.19071119       9.36762750
Al      21.20000000      17.15000000      14.15939849
Al      21.20000000      19.17500000      16.48708377
Al      23.22500000      17.15000000      16.48708377
Al      23.22500000      19.17500000      14.15939849
Al      21.20000000      21.20000000       5.00000000
Al      21.20000000      23.22500000       7.02500000
Al      23.22500000      21.20000000       7.02500000
Al      23.22500000      23.22500000       5.00000000
Al      20.98055530      20.97453521       9.40304273
Al      21.00105701      23.04273126      11.79517230
Al      23.15753914      21.05236870      11.81130919
Al      22.91944529      22.92658623       9.45880466
Al      21.20000000      21.20000000      14.15939849
Al      21.20000000      23.22500000      16.48708377
Al      23.22500000      21.20000000      16.48708377
Al      23.22500000      23.22500000      14.15939849
