299
Lattice="28.224999999999998 0.0 0.0 0.0 28.224999999999998 0.0 0.0 0.0 20.125" Properties=species:S:1:pos:R:3 energy=-16463.99683535911 pbc="T T T"
Al       5.00000000       5.00000000       5.00000000
Al       5.00000000       7.02500000       7.02500000
Al       7.02500000       5.00000000       7.02500000
Al       7.02500000       7.02500000       5.00000000
Al       5.11605424       5.11827728       9.27923139
Al       5.00346156       7.10735875      11.48290103
Al       7.09746485       4.98026018      11.48476465
Al       7.11322495       7.11091104       9.25222241
Al       5.00000000       5.00000000      13.68724690
Al       5.00000000       7.02500000      15.88003173
Al       7.02500000       5.00000000      15.88003173
Al       7.02500000       7.02500000      13.68724690
Al       5.00000000       9.05000000       5.00000000
Al       5.00000000      11.07500000       7.02500000
Al       7.02500000       9.05000000       7.02500000
Al       7.02500000      11.07500000       5.00000000
Al       4.93128714       9.04457562       9.22338797
Al       4.90112286      11.05660574      11.46804375
Al       7.07504464       9.10319913      11.46288555
Al       7.02688590      11.07707671       9.24581981
Al       5.00000000       9.05000000      13.68724690
Al       5.00000000      11.07500000      15.88003173
Al       7.02500000       9.05000000      15.88003173
Al       7.02500000      11.07500000      13.68724690
Al       5.00000000      13.10000000       5.00000000
Al       5.00000000      15.12500000       7.02500000
Al       7.02500000      13.10000000       7.02500000
Al       7.02500000      15.12500000       5.00000000
Al       4.90364547      13.09371663       9.23130460
Al       4.90689789      15.12970025      11.46818249
Al       7.00119912      13.08736865      11.45415015
Al       7.00731648      15.13120004       9.24408648
Al       5.00000000      13.10000000      13.68724690
Al       5.00000000      15.12500000      15.88003173
Al       7.02500000      13.10000000      15.88003173
Al       7.02500000      15.12500000      13.68724690
Al       5.00000000      17.15000000       5.00000000
Al       5.00000000      19.17500000       7.02500000
Al       7.02500000      17.15000000       7.02500000
Al       7.02500000      19.17500000       5.00000000
Al       4.90480282      17.16755580       9.23248116
Al       4.91595098      19.18851679      11.47854820
Al       7.00789149      17.16491567      11.45654922
Al       7.06092659      19.13944540       9.23948104
Al       5.00000000      17.15000000      13.68724690
Al       5.00000000      19.17500000      15.88003173
Al       7.02500000      17.15000000      15.88003173
Al       7.02500000      19.17500000      13.68724690
Al       5.00000000      21.20000000       5.00000000
Al       5.00000000      23.22500000       7.02500000
Al       7.02500000      21.20000000       7.02500000
Al       7.02500000      23.22500000       5.00000000
Al       4.99528252      21.12114910       9.21686245
Al       5.13002156      23.09497844      11.42346297
Al       7.13446312      21.09053688      11.44961834
Al       7.10385090      23.22971748       9.21686245
Al       5.00000000      21.20000000      13.68724690
Al       5.00000000      23.22500000      15.88003173
Al       7.02500000      21.20000000      15.88003173
Al       7.02500000      23.22500000      13.68724690
Al       9.05000000       5.00000000       5.00000000
Al       9.05000000       7.02500000       7.02500000
Al      11.07500000       5.00000000       7.02500000
Al      11.07500000       7.02500000       5.00000000
Al       9.03922868       4.91918359       9.22257771
Al       9.07156570       7.04500127      11.46291085
Al      11.05982091       4.90779771      11.46790887
Al      11.06373081       7.01461603       9.24300517
Al       9.05000000       5.00000000      13.68724690
Al       9.05000000       7.02500000      15.88003173
Al      11.07500000       5.00000000      15.88003173
Al      11.07500000       7.02500000      13.68724690
Al       9.05000000       9.05000000       5.00000000
Al       9.05000000      11.07500000       7.02500000
Al      11.07500000       9.05000000       7.02500000
Al      11.07500000      11.07500000       5.00000000
Al       9.08951608       9.09264866       9.23570126
Al       9.11277701      11.14133521      11.47003546
Al      11.07552912       9.04412042      11.46780372
Al      11.09575809      11.09867709       9.24734047
Al       9.05000000       9.05000000      13.68724690
Al       9.05000000      11.07500000      15.88003173
Al      11.07500000       9.05000000      15.88003173
Al      11.07500000      11.07500000      13.68724690
Al       9.05000000      13.10000000       5.00000000
Al       9.05000000      15.12500000       7.02500000
Al      11.07500000      13.10000000       7.02500000
Al      11.07500000      15.12500000       5.00000000
Al       9.05375125      13.11222905       9.24537760
Al       9.01321745      15.12706423      11.46806604
Al      11.21822785      13.24919988      11.46770567
Al      11.09067436      15.12354945       9.22228335
Al       9.05000000      13.10000000      13.68724690
Al       9.05000000      15.12500000      15.88003173
Al      11.07500000      13.10000000      15.88003173
Al      11.07500000      15.12500000      13.68724690
Al       9.05000000      17.15000000       5.00000000
Al       9.05000000      19.17500000       7.02500000
Al      11.07500000      17.15000000       7.02500000
Al      11.07500000      19.17500000       5.00000000
Al       9.07053051      17.12887084       9.24327947
Al       9.14282342      19.08217658      11.46933429
Al      11.23278841      16.99221159      11.46587275
Al      11.09612916      19.15446949       9.24327947
Al       9.05000000      17.15000000      13.68724690
Al       9.05000000      19.17500000      15.88003173
Al      11.07500000      17.15000000      15.88003173
Al      11.07500000      19.17500000      13.68724690
Al       9.05000000      21.20000000       5.00000000
Al       9.05000000      23.22500000       7.02500000
Al      11.07500000      21.20000000       7.02500000
Al      11.07500000      23.22500000       5.00000000
Al       9.08555460      21.16407341       9.23948104
Al       9.03648321      23.30904902      11.47854820
Al      11.06008433      21.21710851      11.45654922
Al      11.05744420      23.32019718       9.23248116
Al       9.05000000      21.20000000      13.68724690
Al       9.05000000      23.22500000      15.88003173
Al      11.07500000      21.20000000      15.88003173
Al      11.07500000      23.22500000      13.68724690
Al      13.10000000       5.00000000       5.00000000
Al      13.10000000       7.02500000       7.02500000
Al      15.12500000       5.00000000       7.02500000
Al      15.12500000       7.02500000       5.00000000
Al      13.09509817       4.90771882       9.23227076
Al      13.09410469       7.01061793      11.45391686
Al      15.12962072       4.90722544      11.46884761
Al      15.13361752       7.00781857       9.24540203
Al      13.10000000       5.00000000      13.68724690
Al      13.10000000       7.02500000      15.88003173
Al      15.12500000       5.00000000      15.88003173
Al      15.12500000       7.02500000      13.68724690
Al      13.10000000       9.05000000       5.00000000
Al      13.10000000      11.07500000       7.02500000
Al      15.12500000       9.05000000       7.02500000
Al      15.12500000      11.07500000       5.00000000
Al      13.09759462       9.03291573       9.23271678
Al      13.10287105      11.04442567      11.46847451
Al      15.13427138       9.02671893      11.46635274
Al      15.10889664      11.08658048       9.24681883
Al      13.10000000       9.05000000      13.68724690
Al      13.10000000      11.07500000      15.88003173
Al      15.12500000       9.05000000      15.88003173
Al      15.12500000      11.07500000      13.68724690
Al      13.10000000      13.10000000       5.00000000
Al      13.10000000      15.12500000       7.02500000
Al      15.12500000      13.10000000       7.02500000
Al      15.12500000      15.12500000       5.00000000
Al      13.09919323      13.12250896       9.22491309
Al      14.97455351      13.25044649      11.46838199
Al      15.10249104      15.12580677       9.22491309
Al      13.10000000      13.10000000      13.68724690
Al      13.10000000      15.12500000      15.88003173
Al      15.12500000      13.10000000      15.88003173
Al      15.12500000      15.12500000      13.68724690
Al      13.10000000      17.15000000       5.00000000
Al      13.10000000      19.17500000       7.02500000
Al      15.12500000      17.15000000       7.02500000
Al      15.12500000      19.17500000       5.00000000
Al      13.10145055      17.13432564       9.22228335
Al      13.09793577      19.21178255      11.46806604
Al      14.97580012      17.00677215      11.46770567
Al      15.11277095      19.17124875       9.24537760
Al      13.10000000      17.15000000      13.68724690
Al      13.10000000      19.17500000      15.88003173
Al      15.12500000      17.15000000      15.88003173
Al      15.12500000      19.17500000      13.68724690
Al      13.10000000      21.20000000       5.00000000
Al      13.10000000      23.22500000       7.02500000
Al      15.12500000      21.20000000       7.02500000
Al      15.12500000      23.22500000       5.00000000
Al      13.09379996      21.21768352       9.24408648
Al      13.09529975      23.31810211      11.46818249
Al      15.13763135      21.22380088      11.45415015
Al      15.13128337      23.32135453       9.23130460
Al      13.10000000      21.20000000      13.68724690
Al      13.10000000      23.22500000      15.88003173
Al      15.12500000      21.20000000      15.88003173
Al      15.12500000      23.22500000      13.68724690
Al      17.15000000       5.00000000       5.00000000
Al      17.15000000       7.02500000       7.02500000
Al      19.17500000       5.00000000       7.02500000
Al      19.17500000       7.02500000       5.00000000
Al      17.16707379       4.90518239       9.23288619
Al      17.16236020       7.01148216      11.45653013
Al      19.18678461       4.91911952      11.47835246
Al      19.14440617       7.05496800       9.23798779
Al      17.15000000       5.00000000      13.68724690
Al      17.15000000       7.02500000      15.88003173
Al      19.17500000       5.00000000      15.88003173
Al      19.17500000       7.02500000      13.68724690
Al      17.15000000       9.05000000       5.00000000
Al      17.15000000      11.07500000       7.02500000
Al      19.17500000       9.05000000       7.02500000
Al      19.17500000      11.07500000       5.00000000
Al      17.13455950       9.06396500       9.23624342
Al      17.08334374      11.14165626      11.46873526
Al      19.11790922       9.10709078      11.46770203
Al      19.16103500      11.09044050       9.23624342
Al      17.15000000       9.05000000      13.68724690
Al      17.15000000      11.07500000      15.88003173
Al      19.17500000       9.05000000      15.88003173
Al      19.17500000      11.07500000      13.68724690
Al      17.15000000      13.10000000       5.00000000
Al      17.15000000      15.12500000       7.02500000
Al      19.17500000      13.10000000       7.02500000
Al      19.17500000      15.12500000       5.00000000
Al      17.13841952      13.11610336       9.24681883
Al      17.18057433      15.12212895      11.46847451
Al      19.19828107      13.09072862      11.46635274
Al      19.19208427      15.12740538       9.23271678
Al      17.15000000      13.10000000      13.68724690
Al      17.15000000      15.12500000      15.88003173
Al      19.17500000      13.10000000      15.88003173
Al      19.17500000      15.12500000      13.68724690
Al      17.15000000      17.15000000       5.00000000
Al      17.15000000      19.17500000       7.02500000
Al      19.17500000      17.15000000       7.02500000
Al      19.17500000      19.17500000       5.00000000
Al      17.12632291      17.12924191       9.24734047
Al      17.08366479      19.11222299      11.47003546
Al      19.18087958      17.14947088      11.46780372
Al      19.13235134      19.13548392       9.23570126
Al      17.15000000      17.15000000      13.68724690
Al      17.15000000      19.17500000      15.88003173
Al      19.17500000      17.15000000      15.88003173
Al      19.17500000      19.17500000      13.68724690
Al      17.15000000      21.20000000       5.00000000
Al      17.15000000      23.22500000       7.02500000
Al      19.17500000      21.20000000       7.02500000
Al      19.17500000      23.22500000       5.00000000
Al      17.14792329      21.19811410       9.24581981
Al      17.16839426      23.32387714      11.46804375
Al      19.12180087      21.14995536      11.46288555
Al      19.18042438      23.29371286       9.22338797
Al      17.15000000      21.20000000      13.68724690
Al      17.15000000      23.22500000      15.88003173
Al      19.17500000      21.20000000      15.88003173
Al      19.17500000      23.22500000      13.68724690
Al      21.20000000       5.00000000       5.00000000
Al      21.20000000       7.02500000       7.02500000
Al      23.22500000       5.00000000       7.02500000
Al      23.22500000       7.02500000       5.00000000
Al      21.12482799       4.99065538       9.21731480
Al      21.10670770       7.11829230      11.44933193
Al      23.10417149       5.12082851      11.42532225
Al      23.23434462       7.10017201       9.21731480
Al      21.20000000       5.00000000      13.68724690
Al      21.20000000       7.02500000      15.88003173
Al      23.22500000       5.00000000      15.88003173
Al      23.22500000       7.02500000      13.68724690
Al      21.20000000       9.05000000       5.00000000
Al      21.20000000      11.07500000       7.02500000
Al      23.22500000       9.05000000       7.02500000
Al      23.22500000      11.07500000       5.00000000
Al      21.17003200       9.08059383       9.23798779
Al      21.21351784      11.06263980      11.45653013
Al      23.30588048       9.03821539      11.47835246
Al      23.31981761      11.05792621       9.23288619
Al      21.20000000       9.05000000      13.68724690
Al      21.20000000      11.07500000      15.88003173
Al      23.22500000       9.05000000      15.88003173
Al      23.22500000      11.07500000      13.68724690
Al      21.20000000      13.10000000       5.00000000
Al      21.20000000      15.12500000       7.02500000
Al      23.22500000      13.10000000       7.02500000
Al      23.22500000      15.12500000       5.00000000
Al      21.21718143      13.09138248       9.24540203
Al      21.21438207      15.13089531      11.45391686
Al      23.31777456      13.09537928      11.46884761
Al      23.31728118      15.12990183       9.23227076
Al      21.20000000      13.10000000      13.68724690
Al      21.20000000      15.12500000      15.88003173
Al      23.22500000      13.10000000      15.88003173
Al      23.22500000      15.12500000      13.68724690
Al      21.20000000      17.15000000       5.00000000
Al      21.20000000      19.17500000       7.02500000
Al      23.22500000      17.15000000       7.02500000
Al      23.22500000      19.17500000       5.00000000
Al      21.21038397      17.16126919       9.24300517
Al      21.17999873      19.15343430      11.46291085
Al      23.31720229      17.16517909      11.46790887
Al      23.30581641      19.18577132       9.22257771
Al      21.20000000      17.15000000      13.68724690
Al      21.20000000      19.17500000      15.88003173
Al      23.22500000      17.15000000      15.88003173
Al      23.22500000      19.17500000      13.68724690
Al      21.20000000      21.20000000       5.00000000
Al      21.20000000      23.22500000       7.02500000
Al      23.22500000      21.20000000       7.02500000
Al      23.22500000      23.22500000       5.00000000
Al      21.11408896      21.11177505       9.25222241
Al      21.11764125      23.22153844      11.48290103
Al      23.24473982      21.12753515      11.48476465
Al      23.10672272      23.10894576       9.27923139
Al      21.20000000      21.20000000      13.68724690
Al      21.20000000      23.22500000      15.88003173
Al      23.22500000      21.20000000      15.88003173
Al      23.22500000      23.22500000      13.68724690
