299
Lattice="28.224999999999998 0.0 0.0 0.0 28.224999999999998 0.0 0.0 0.0 20.125" Properties=species:S:1:pos:R:3:forces:R:3 energy=-16444.384505958198 pbc="T T T"
Al       5.00000000       5.00000000       5.00000000       0.36854276       0.36664871       0.11732397
Al       5.00000000       7.02500000       7.02500000      -0.08345158       0.50376764       1.16080645
Al       7.02500000       5.00000000       7.02500000       0.48710119      -0.09416644       1.16562044
Al       7.02500000       7.02500000       5.00000000       0.32556513       0.32401230      -0.69547150
Al       5.39086194       5.40041441       9.49309310      -0.02840576      -0.02891210       0.01981329
Al       5.30008282       7.29988802      11.83960952      -0.00725375      -0.00975976       0.00805836
Al       7.20248579       5.07159236      11.87706698       0.00877832       0.00484512       0.01033946
Al       7.33332114       7.32440578       9.43002136      -0.00626183      -0.01319029       0.02285293
Al       5.00000000       5.00000000      14.24086747       0.81120035       0.85606661      -0.44798594
Al       5.00000000       7.02500000      16.59182961       0.23826498       0.47766131      -0.81615223
Al       7.02500000       5.00000000      16.59182961       0.48173128       0.22777908      -0.83655454
Al       7.02500000       7.02500000      14.24086747       0.52247678       0.45794932      -0.00639812
Al       5.00000000       9.05000000       5.00000000      -0.17598270      -0.03906162      -0.31299435
Al       5.00000000      11.07500000       7.02500000      -0.26597355       0.00279049       1.29454708
Al       7.02500000       9.05000000       7.02500000       0.39372994       0.06504465       1.40428367
Al       7.02500000      11.07500000       5.00000000       0.31740716      -0.02732794      -0.75148530
Al       5.05650494       9.05775826       9.37138151       0.00685409      -0.01256346       0.01694765
Al       5.01170941      11.03299042      11.81015218       0.00658612      -0.00620455       0.01196061
Al       7.30075623       9.32143501      11.81891389      -0.00986330      -0.01514071       0.00669536
Al       7.09635936      11.08986978       9.38425149      -0.01052366      -0.00402543       0.01584598
Al       5.00000000       9.05000000      14.24086747       0.12846540       0.12681585      -0.08263360
Al       5.00000000      11.07500000      16.59182961       0.12208994      -0.02003074      -0.72569610
Al       7.02500000       9.05000000      16.59182961       0.34730406      -0.04417128      -0.59617587
Al       7.02500000      11.07500000      14.24086747       0.37336831       0.06982396      -0.12376453
Al       5.00000000      13.10000000       5.00000000      -0.18896422      -0.01079921      -0.32953474
Al       5.00000000      15.12500000       7.02500000      -0.26730177       0.03913806       1.38110221
Al       7.02500000      13.10000000       7.02500000       0.31622275       0.02507917       1.54029373
Al       7.02500000      15.12500000       5.00000000       0.32074776       0.01234846      -0.75802276
Al       5.04672083      13.09523556       9.40882348       0.00286017       0.01125722       0.01363612
Al       5.10605730      15.13958089      11.81646749       0.00883658       0.01233203       0.00979471
Al       7.08212558      13.04647138      11.82537215       0.00757554       0.01070179       0.00274459
Al       7.07581802      15.14358975       9.40580741       0.01009667       0.00998668       0.01620153
Al       5.00000000      13.10000000      14.24086747       0.04132185      -0.03411105      -0.31992341
Al       5.00000000      15.12500000      16.59182961       0.12237844       0.00797544      -0.71671174
Al       7.02500000      13.10000000      16.59182961       0.34250667      -0.00723230      -0.58321075
Al       7.02500000      15.12500000      14.24086747       0.36161321       0.02714798      -0.23922719
Al       5.00000000      17.15000000       5.00000000      -0.18559187       0.02963554      -0.32124445
Al       5.00000000      19.17500000       7.02500000      -0.22237650      -0.17719080       1.04751528
Al       7.02500000      17.15000000       7.02500000       0.30256904      -0.05410593       1.44981029
Al       7.02500000      19.17500000       5.00000000       0.32429742       0.05305613      -0.72588738
Al       5.02047563      17.18439488       9.41477391       0.00783533       0.00506498       0.00628059
Al       5.03626485      19.24681332      11.83348655       0.00799568       0.00465643       0.00197331
Al       7.08769239      17.23858894      11.82629716       0.01531970       0.00316535      -0.00325582
Al       7.18353255      19.04827784       9.35917172      -0.00351674       0.00670951      -0.00481157
Al       5.00000000      17.15000000      14.24086747       0.04814044       0.06943698      -0.31048896
Al       5.00000000      19.17500000      16.59182961       0.13015982       0.03703550      -0.72925307
Al       7.02500000      17.15000000      16.59182961       0.34407746       0.02292976      -0.58535763
Al       7.02500000      19.17500000      14.24086747       0.39459583      -0.08501035       0.02143630
Al       5.00000000      21.20000000       5.00000000      -0.06910542      -0.45507216      -0.20971306
Al       5.00000000      23.22500000       7.02500000       0.43531626      -0.43531626       1.11500263
Al       7.02500000      21.20000000       7.02500000       0.49088351      -0.49088351       1.24921568
Al       7.02500000      23.22500000       5.00000000       0.45507216       0.06910542      -0.20971306
Al       5.15404081      20.99279730       9.32950564       0.00869531      -0.00295440       0.01149450
Al       5.58546589      22.63953411      11.73467161      -0.03052064       0.03052064      -0.01722359
Al       7.54914650      20.67585350      11.77751260       0.04869456      -0.04869456      -0.01453244
Al       7.23220270      23.07095919       9.32950564       0.00295440      -0.00869531       0.01149450
Al       5.00000000      21.20000000      14.24086747       0.20709829      -0.57204625       0.05155421
Al       5.00000000      23.22500000      16.59182961       0.72327946      -0.72327946      -0.78178381
Al       7.02500000      21.20000000      16.59182961       0.34595921      -0.34595921      -0.63242806
Al       7.02500000      23.22500000      14.24086747       0.57204625      -0.20709829       0.05155421
Al       9.05000000       5.00000000       5.00000000      -0.03965894      -0.17926278      -0.31185842
Al       9.05000000       7.02500000       7.02500000       0.04640569       0.35678993       1.41080961
Al      11.07500000       5.00000000       7.02500000      -0.03915686      -0.26412483       1.34764441
Al      11.07500000       7.02500000       5.00000000      -0.02617412       0.31613373      -0.75692269
Al       9.01834191       5.01268747       9.38591104      -0.00987532      -0.00016746       0.01457266
Al       9.09013573       7.14169047      11.85380381      -0.02272884      -0.00982502       0.01386166
Al      11.04985569       5.05965532      11.81138036      -0.01297661      -0.00683274       0.01295316
Al      11.01804133       7.08441678       9.40642487      -0.01990710      -0.01535593       0.02036257
Al       9.05000000       5.00000000      14.24086747       0.11891062       0.07629845      -0.05987704
Al       9.05000000       7.02500000      16.59182961      -0.04219101       0.34192333      -0.60381720
Al      11.07500000       5.00000000      16.59182961      -0.02242784       0.12249746      -0.72938504
Al      11.07500000       7.02500000      14.24086747      -0.01538459       0.32075715      -0.16013805
Al       9.05000000       9.05000000       5.00000000      -0.05194647      -0.05308605      -0.81297165
Al       9.05000000      11.07500000       7.02500000       0.06165352       0.07994668       1.44670530
Al      11.07500000       9.05000000       7.02500000       0.04440197       0.02568386       1.48351431
Al      11.07500000      11.07500000       5.00000000      -0.02436143      -0.02385505      -0.81994033
Al       9.23608656       9.26449658       9.41150909       0.00878164       0.01297169       0.01887323
Al       9.33819035      11.33656147      11.82093083      -0.01354779      -0.01672906       0.00382682
Al      11.08979732       9.10222638      11.84381894      -0.01696768      -0.01200357       0.00263467
Al      11.20810738      11.18309619       9.41764729      -0.02810734      -0.02429355       0.01937381
Al       9.05000000       9.05000000      14.24086747       0.07358756       0.09865760      -0.04696315
Al       9.05000000      11.07500000      16.59182961      -0.04586839      -0.02323624      -0.53113832
Al      11.07500000       9.05000000      16.59182961      -0.02577971      -0.04914117      -0.53423408
Al      11.07500000      11.07500000      14.24086747       0.14603520       0.11302210      -0.13267394
Al       9.05000000      13.10000000       5.00000000      -0.04973242      -0.00588124      -0.81557845
Al       9.05000000      15.12500000       7.02500000      -0.08950385      -0.03768290       1.34980524
Al      11.07500000      13.10000000       7.02500000      -0.07751449      -0.07587279       1.26370652
Al      11.07500000      15.12500000       5.00000000      -0.01993667       0.01361737      -0.77352640
Al       9.08567765      13.11949552       9.39698749       0.00226419       0.01476715       0.01910623
Al       9.05970777      15.14778013      11.82367207       0.00617975       0.02435130      -0.01069223
Al      11.43188075      13.42833311      11.77521231      -0.03454415      -0.01809189      -0.00579887
Al      11.10803098      15.09174767       9.27418767      -0.01954748       0.01560269       0.02002087
Al       9.05000000      13.10000000      14.24086747       0.08895418       0.14303289      -0.16761033
Al       9.05000000      15.12500000      16.59182961      -0.04487266       0.00965328      -0.52447104
Al      11.07500000      13.10000000      16.59182961      -0.02114597      -0.00478052      -0.51958118
Al      11.07500000      15.12500000      14.24086747      -0.06129562      -0.02715999       0.22259497
Al       9.05000000      17.15000000       5.00000000      -0.04781837       0.03055402      -0.79136162
Al       9.05000000      19.17500000       7.02500000       0.09193489      -0.09193489       1.29611908
Al      11.07500000      17.15000000       7.02500000      -0.02490158       0.02490158       1.21435876
Al      11.07500000      19.17500000       5.00000000      -0.03055402       0.04781837      -0.79136162
Al       9.14519698      17.06378777       9.36807178       0.00621127       0.01090786       0.00878477
Al       9.54992827      18.67507173      11.79134335       0.05457623      -0.05457623      -0.01874148
Al      11.63338232      16.59161768      11.74832349       0.02313500      -0.02313500      -0.01803131
Al      11.16121223      19.07980302       9.36807178      -0.01090786      -0.00621127       0.00878477
Al       9.05000000      17.15000000      14.24086747       0.06617216      -0.16086786      -0.00510701
Al       9.05000000      19.17500000      16.59182961      -0.04497155       0.04497155      -0.52922532
Al      11.07500000      17.15000000      16.59182961      -0.02118365       0.02118365      -0.52013633
Al      11.07500000      19.17500000      14.24086747       0.16086786      -0.06617216      -0.00510701
Al       9.05000000      21.20000000       5.00000000      -0.05305613      -0.32429742      -0.72588738
Al       9.05000000      23.22500000       7.02500000       0.17719080       0.22237650       1.04751528
Al      11.07500000      21.20000000       7.02500000       0.05410593      -0.30256904       1.44981029
Al      11.07500000      23.22500000       5.00000000      -0.02963554       0.18559187      -0.32124445
Al       9.17672216      21.04146745       9.35917172      -0.00670951       0.00351674      -0.00481157
Al       8.97818668      23.18873515      11.83348655      -0.00465643      -0.00799568       0.00197331
Al      10.98641106      21.13730761      11.82629716      -0.00316535      -0.01531970      -0.00325582
Al      11.04060512      23.20452437       9.41477391      -0.00506498      -0.00783533       0.00628059
Al       9.05000000      21.20000000      14.24086747       0.08501035      -0.39459583       0.02143630
Al       9.05000000      23.22500000      16.59182961      -0.03703550      -0.13015982      -0.72925307
Al      11.07500000      21.20000000      16.59182961      -0.02292976      -0.34407746      -0.58535763
Al      11.07500000      23.22500000      14.24086747      -0.06943698      -0.04814044      -0.31048896
Al      13.10000000       5.00000000       5.00000000      -0.01085102      -0.18645781      -0.33143887
Al      13.10000000       7.02500000       7.02500000      -0.01964452       0.30827607       1.54850144
Al      15.12500000       5.00000000       7.02500000       0.03235421      -0.27484422       1.38253494
Al      15.12500000       7.02500000       5.00000000       0.00734284       0.31791563      -0.75929784
Al      13.09033045       5.08370680       9.40946455      -0.00655221      -0.00444849       0.01639985
Al      13.08791144       7.10904325      11.82885993      -0.01359042      -0.00219557       0.00782426
Al      15.13600933       5.09406531      11.81337999       0.00066296      -0.00789672       0.00757528
Al      15.17029802       7.07501226       9.40362152       0.00293361      -0.01928815       0.01157928
Al      13.10000000       5.00000000      14.24086747      -0.02660003       0.04911252      -0.31469460
Al      13.10000000       7.02500000      16.59182961      -0.01171167       0.33793681      -0.58534337
Al      15.12500000       5.00000000      16.59182961       0.00229222       0.11999044      -0.72105099
Al      15.12500000       7.02500000      14.24086747       0.03835538       0.31899456      -0.19558121
Al      13.10000000       9.05000000       5.00000000      -0.00926467      -0.05522174      -0.82803064
Al      13.10000000      11.07500000       7.02500000      -0.01078332      -0.07856542       1.36801304
Al      15.12500000       9.05000000       7.02500000      -0.05233493      -0.01751782       1.46016079
Al      15.12500000      11.07500000       5.00000000       0.00841982      -0.02289067      -0.81733328
Al      13.09986046       9.03483717       9.40457445      -0.01534014      -0.02580093       0.01962277
Al      13.16291623      11.06675906      11.83063746      -0.00282314       0.00900408      -0.00190744
Al      15.19708664       9.03375960      11.83193487       0.00216735      -0.02483700      -0.00460346
Al      15.05578697      11.12871641       9.38600473      -0.03022260       0.01192103       0.00405296
Al      13.10000000       9.05000000      14.24086747       0.02389967      -0.02564732      -0.16398445
Al      13.10000000      11.07500000      16.59182961      -0.01267104      -0.01950168      -0.51972532
Al      15.12500000       9.05000000      16.59182961       0.00281081      -0.05022296      -0.51908682
Al      15.12500000      11.07500000      14.24086747      -0.14673574       0.07853791      -0.06030797
Al      13.10000000      13.10000000       5.00000000      -0.00814888      -0.00002476      -0.78087309
Al      13.10000000      15.12500000       7.02500000      -0.02850902       0.02850902       0.97341550
Al      15.12500000      13.10000000       7.02500000       0.06193264      -0.06193264       1.21983803
Al      15.12500000      15.12500000       5.00000000       0.00002476       0.00814888      -0.78087309
Al      13.12158186      13.14927609       9.28325297      -0.03678504      -0.00332725       0.01823407
Al      14.65894287      13.56605713      11.77284663      -0.04438274       0.04438274      -0.00666719
Al      15.07572391      15.10341814       9.28325297       0.00332725       0.03678504       0.01823407
Al      13.10000000      13.10000000      14.24086747      -0.05751480      -0.00875868       0.22833762
Al      13.10000000      15.12500000      16.59182961      -0.00973063       0.00973063      -0.49999078
Al      15.12500000      13.10000000      16.59182961       0.00116525      -0.00116525      -0.51142408
Al      15.12500000      15.12500000      14.24086747       0.00875868       0.05751480       0.22833762
Al      13.10000000      17.15000000       5.00000000      -0.01361737       0.01993667      -0.77352640
Al      13.10000000      19.17500000       7.02500000       0.03768290       0.08950385       1.34980524
Al      15.12500000      17.15000000       7.02500000       0.07587279       0.07751449       1.26370652
Al      15.12500000      19.17500000       5.00000000       0.00588124       0.04973242      -0.81557845
Al      13.13325233      17.11696902       9.27418767      -0.01560269       0.01954748       0.02002087
Al      13.07721987      19.16529223      11.82367207      -0.02435130      -0.00617975      -0.01069223
Al      14.79666689      16.79311925      11.77521231       0.01809189       0.03454415      -0.00579887
Al      15.10550448      19.13932235       9.39698749      -0.01476715      -0.00226419       0.01910623
Al      13.10000000      17.15000000      14.24086747       0.02715999       0.06129562       0.22259497
Al      13.10000000      19.17500000      16.59182961      -0.00965328       0.04487266      -0.52447104
Al      15.12500000      17.15000000      16.59182961       0.00478052       0.02114597      -0.51958118
Al      15.12500000      19.17500000      14.24086747      -0.14303289      -0.08895418      -0.16761033
Al      13.10000000      21.20000000       5.00000000      -0.01234846      -0.32074776      -0.75802276
Al      13.10000000      23.22500000       7.02500000      -0.03913806       0.26730177       1.38110221
Al      15.12500000      21.20000000       7.02500000      -0.02507917      -0.31622275       1.54029373
Al      15.12500000      23.22500000       5.00000000       0.01079921       0.18896422      -0.32953474
Al      13.08141025      21.14918198       9.40580741      -0.00998668      -0.01009667       0.01620153
Al      13.08541911      23.11894270      11.81646749      -0.01233203      -0.00883658       0.00979471
Al      15.17852862      21.14287442      11.82537215      -0.01070179      -0.00757554       0.00274459
Al      15.12976444      23.17827917       9.40882348      -0.01125722      -0.00286017       0.01363612
Al      13.10000000      21.20000000      14.24086747      -0.02714798      -0.36161321      -0.23922719
Al      13.10000000      23.22500000      16.59182961      -0.00797544      -0.12237844      -0.71671174
Al      15.12500000      21.20000000      16.59182961       0.00723230      -0.34250667      -0.58321075
Al      15.12500000      23.22500000      14.24086747       0.03411105      -0.04132185      -0.31992341
Al      17.15000000       5.00000000       5.00000000       0.02095150      -0.18662506      -0.31989182
Al      17.15000000       7.02500000       7.02500000      -0.02915900       0.29605955       1.45065202
Al      19.17500000       5.00000000       7.02500000      -0.15618027      -0.22420903       1.06907751
Al      19.17500000       7.02500000       5.00000000       0.04319767       0.32489235      -0.73461531
Al      17.19094229       5.01196193       9.41221897       0.00606606      -0.00479287       0.00753069
Al      17.23855624       7.06186894      11.82986277       0.01591073      -0.02008321      -0.00395851
Al      19.24126138       5.01895821      11.83655066       0.01540324      -0.00999910       0.00523303
Al      19.04947246       7.18313105       9.37285536       0.00927745      -0.01367582       0.00393876
Al      17.15000000       5.00000000      14.24086747       0.05109384       0.03013719      -0.28718966
Al      17.15000000       7.02500000      16.59182961       0.01437685       0.33899758      -0.58563616
Al      19.17500000       5.00000000      16.59182961       0.03057610       0.12242896      -0.73165971
Al      19.17500000       7.02500000      14.24086747      -0.06095342       0.38565192      -0.02984914
Al      17.15000000       9.05000000       5.00000000       0.02620597      -0.05086033      -0.80844002
Al      17.15000000      11.07500000       7.02500000      -0.06913409       0.06913409       1.40560448
Al      19.17500000       9.05000000       7.02500000      -0.07570670       0.07570670       1.32801102
Al      19.17500000      11.07500000       5.00000000       0.05086033      -0.02620597      -0.80844002
Al      17.06624750       9.15769905       9.37880755       0.00966058      -0.00778527       0.00734252
Al      16.77463690      11.45036310      11.80309466      -0.00269254       0.00269254      -0.01778011
Al      18.79986070       9.42513930      11.79991660      -0.02392856       0.02392856      -0.00855696
Al      19.06730095      11.15875250       9.37880755       0.00778527      -0.00966058       0.00734252
Al      17.15000000       9.05000000      14.24086747      -0.08401131       0.05002602      -0.04244495
Al      17.15000000      11.07500000      16.59182961       0.01966610      -0.01966610      -0.51116219
Al      19.17500000       9.05000000      16.59182961       0.04299874      -0.04299874      -0.52471669
Al      19.17500000      11.07500000      14.24086747      -0.05002602       0.08401131      -0.04244495
Al      17.15000000      13.10000000       5.00000000       0.02289067      -0.00841982      -0.81733328
Al      17.15000000      15.12500000       7.02500000       0.07856542       0.01078332       1.36801304
Al      19.17500000      13.10000000       7.02500000       0.01751782       0.05233493       1.46016079
Al      19.17500000      15.12500000       5.00000000       0.05522174       0.00926467      -0.82803064
Al      17.09628359      13.16921303       9.38600473      -0.01192103       0.03022260       0.00405296
Al      17.15824094      15.06208377      11.83063746      -0.00900408       0.00282314      -0.00190744
Al      19.19124040      13.02791336      11.83193487       0.02483700      -0.00216735      -0.00460346
Al      19.19016283      15.12513954       9.40457445       0.02580093       0.01534014       0.01962277
Al      17.15000000      13.10000000      14.24086747      -0.07853791       0.14673574      -0.06030797
Al      17.15000000      15.12500000      16.59182961       0.01950168       0.01267104      -0.51972532
Al      19.17500000      13.10000000      16.59182961       0.05022296      -0.00281081      -0.51908682
Al      19.17500000      15.12500000      14.24086747       0.02564732      -0.02389967      -0.16398445
Al      17.15000000      17.15000000       5.00000000       0.02385505       0.02436143      -0.81994033
Al      17.15000000      19.17500000       7.02500000      -0.07994668      -0.06165352       1.44670530
Al      19.17500000      17.15000000       7.02500000      -0.02568386      -0.04440197       1.48351431
Al      19.17500000      19.17500000       5.00000000       0.05308605       0.05194647      -0.81297165
Al      17.04190381      17.01689262       9.41764729       0.02429355       0.02810734       0.01937381
Al      16.88843853      18.88680965      11.82093083       0.01672906       0.01354779       0.00382682
Al      19.12277362      17.13520268      11.84381894       0.01200357       0.01696768       0.00263467
Al      18.96050342      18.98891344       9.41150909      -0.01297169      -0.00878164       0.01887323
Al      17.15000000      17.15000000      14.24086747      -0.11302210      -0.14603520      -0.13267394
Al      17.15000000      19.17500000      16.59182961       0.02323624       0.04586839      -0.53113832
Al      19.17500000      17.15000000      16.59182961       0.04914117       0.02577971      -0.53423408
Al      19.17500000      19.17500000      14.24086747      -0.09865760      -0.07358756      -0.04696315
Al      17.15000000      21.20000000       5.00000000       0.02732794      -0.31740716      -0.75148530
Al      17.15000000      23.22500000       7.02500000      -0.00279049       0.26597355       1.29454708
Al      19.17500000      21.20000000       7.02500000      -0.06504465      -0.39372994       1.40428367
Al      19.17500000      23.22500000       5.00000000       0.03906162       0.17598270      -0.31299435
Al      17.13513022      21.12864064       9.38425149       0.00402543       0.01052366       0.01584598
Al      17.19200958      23.21329059      11.81015218       0.00620455      -0.00658612       0.01196061
Al      18.90356499      20.92424377      11.81891389       0.01514071       0.00986330       0.00669536
Al      19.16724174      23.16849506       9.37138151       0.01256346      -0.00685409       0.01694765
Al      17.15000000      21.20000000      14.24086747      -0.06982396      -0.37336831      -0.12376453
Al      17.15000000      23.22500000      16.59182961       0.02003074      -0.12208994      -0.72569610
Al      19.17500000      21.20000000      16.59182961       0.04417128      -0.34730406      -0.59617587
Al      19.17500000      23.22500000      14.24086747      -0.12681585      -0.12846540      -0.08263360
Al      21.20000000       5.00000000       5.00000000      -0.45853249      -0.07738837      -0.21596840
Al      21.20000000       7.02500000       7.02500000      -0.48396372       0.48396372       1.29196124
Al      23.22500000       5.00000000       7.02500000      -0.42986612       0.42986612       1.15094372
Al      23.22500000       7.02500000       5.00000000       0.07738837       0.45853249      -0.21596840
Al      20.99781330       5.15317925       9.34012114       0.00887518      -0.01201151       0.00980266
Al      20.76802005       7.45697995      11.78486956      -0.01906185       0.01906185      -0.01628072
Al      22.71886884       5.50613116      11.73467638       0.05064922      -0.05064922      -0.01193674
Al      23.07182075       7.22718670       9.34012114       0.01201151      -0.00887518       0.00980266
Al      21.20000000       5.00000000      14.24086747      -0.53946949       0.21289726      -0.01172567
Al      21.20000000       7.02500000      16.59182961      -0.34532102       0.34532102      -0.63160350
Al      23.22500000       5.00000000      16.59182961      -0.71469471       0.71469471      -0.79056614
Al      23.22500000       7.02500000      14.24086747      -0.21289726       0.53946949      -0.01172567
Al      21.20000000       9.05000000       5.00000000      -0.32489235      -0.04319767      -0.73461531
Al      21.20000000      11.07500000       7.02500000      -0.29605955       0.02915900       1.45065202
Al      23.22500000       9.05000000       7.02500000       0.22420903       0.15618027       1.06907751
Al      23.22500000      11.07500000       5.00000000       0.18662506      -0.02095150      -0.31989182
Al      21.04186895       9.17552754       9.37285536       0.01367582      -0.00927745       0.00393876
Al      21.16313106      10.98644376      11.82986277       0.02008321      -0.01591073      -0.00395851
Al      23.20604179       8.98373862      11.83655066       0.00999910      -0.01540324       0.00523303
Al      23.21303807      11.03405771       9.41221897       0.00479287      -0.00606606       0.00753069
Al      21.20000000       9.05000000      14.24086747      -0.38565192       0.06095342      -0.02984914
Al      21.20000000      11.07500000      16.59182961      -0.33899758      -0.01437685      -0.58563616
Al      23.22500000       9.05000000      16.59182961      -0.12242896      -0.03057610      -0.73165971
Al      23.22500000      11.07500000      14.24086747      -0.03013719      -0.05109384      -0.28718966
Al      21.20000000      13.10000000       5.00000000      -0.31791563      -0.00734284      -0.75929784
Al      21.20000000      15.12500000       7.02500000      -0.30827607       0.01964452       1.54850144
Al      23.22500000      13.10000000       7.02500000       0.27484422      -0.03235421       1.38253494
Al      23.22500000      15.12500000       5.00000000       0.18645781       0.01085102      -0.33143887
Al      21.14998774      13.05470198       9.40362152       0.01928815      -0.00293361       0.01157928
Al      21.11595675      15.13708856      11.82885993       0.00219557       0.01359042       0.00782426
Al      23.13093469      13.08899067      11.81337999       0.00789672      -0.00066296       0.00757528
Al      23.14129320      15.13466955       9.40946455       0.00444849       0.00655221       0.01639985
Al      21.20000000      13.10000000      14.24086747      -0.31899456      -0.03835538      -0.19558121
Al      21.20000000      15.12500000      16.59182961      -0.33793681       0.01171167      -0.58534337
Al      23.22500000      13.10000000      16.59182961      -0.11999044      -0.00229222      -0.72105099
Al      23.22500000      15.12500000      14.24086747      -0.04911252       0.02660003      -0.31469460
Al      21.20000000      17.15000000       5.00000000      -0.31613373       0.02617412      -0.75692269
Al      21.20000000      19.17500000       7.02500000      -0.35678993      -0.04640569       1.41080961
Al      23.22500000      17.15000000       7.02500000       0.26412483       0.03915686       1.34764441
Al      23.22500000      19.17500000       5.00000000       0.17926278       0.03965894      -0.31185842
Al      21.14058322      17.20695867       9.40642487       0.01535593       0.01990710       0.02036257
Al      21.08330953      19.13486427      11.85380381       0.00982502       0.02272884       0.01386166
Al      23.16534468      17.17514431      11.81138036       0.00683274       0.01297661       0.01295316
Al      23.21231253      19.20665809       9.38591104       0.00016746       0.00987532       0.01457266
Al      21.20000000      17.15000000      14.24086747      -0.32075715       0.01538459      -0.16013805