299
Lattice="28.224999999999998 0.0 0.0 0.0 28.224999999999998 0.0 0.0 0.0 20.125" Properties=species:S:1:pos:R:3:forces:R:3 energy=-16433.761474870593 pbc="T T T"
Al       5.00000000       5.00000000       5.00000000       0.37245804       0.37185317       0.07172366
Al       5.00000000       7.02500000       7.02500000      -0.05605798       0.49870069       1.31022359
Al       7.02500000       5.00000000       7.02500000       0.50777517      -0.06502599       1.30975973
Al       7.02500000       7.02500000       5.00000000       0.32192652       0.32271485      -0.74515777
Al       5.43392435       5.42871420       9.57569775       0.04615112       0.04090962      -0.02825829
Al       5.20938463       7.23562796      12.03155008       0.00590212       0.00171043       0.00627094
Al       7.26539406       5.16037818      12.02908719      -0.00348452       0.00839607      -0.00701295
Al       7.37826626       7.33498862       9.52947390       0.03225420       0.02930009      -0.01811756
Al       5.00000000       5.00000000      14.49019523       0.91465996       0.89733913      -0.35141238
Al       5.00000000       7.02500000      16.91239387       0.26604474       0.47735897      -0.97665030
Al       7.02500000       5.00000000      16.91239387       0.47762499       0.26473510      -0.97920159
Al       7.02500000       7.02500000      14.49019523       0.45935023       0.44555665      -0.01325389
Al       5.00000000       9.05000000       5.00000000      -0.17782277      -0.03609643      -0.36061293
Al       5.00000000      11.07500000       7.02500000      -0.24614643       0.01734479       1.50379202
Al       7.02500000       9.05000000       7.02500000       0.37735003       0.06667836       1.68312151
Al       7.02500000      11.07500000       5.00000000       0.32580459      -0.01294948      -0.79913528
Al       5.07887835       9.03381410       9.46749739       0.01597523      -0.01750345       0.00054380
Al       5.04259011      11.09549824      11.97186301       0.00587707      -0.01005996       0.00366763
Al       7.18232389       9.21818380      11.99702509      -0.00001238      -0.00148860       0.00065046
Al       7.04409653      11.13546597       9.48368998      -0.02386222       0.00647024      -0.01543944
Al       5.00000000       9.05000000      14.49019523       0.15005556       0.11968301      -0.10555537
Al       5.00000000      11.07500000      16.91239387       0.15462712      -0.01560867      -0.87672274
Al       7.02500000       9.05000000      16.91239387       0.34117461      -0.04133450      -0.78375043
Al       7.02500000      11.07500000      14.49019523       0.32106831       0.04469385      -0.12955461
Al       5.00000000      13.10000000       5.00000000      -0.18180409      -0.00246216      -0.36432136
Al       5.00000000      15.12500000       7.02500000      -0.16460039      -0.01505043       1.42634717
Al       7.02500000      13.10000000       7.02500000       0.35409050      -0.01580472       1.73205739
Al       7.02500000      15.12500000       5.00000000       0.32731132       0.00487820      -0.80136425
Al       5.02861525      13.16777615       9.48752559       0.00761594       0.00259580      -0.00359831
Al       5.09386056      15.14293533      12.00553376       0.01062500       0.03431226      -0.01072166
Al       7.10514918      13.10871815      11.99890681      -0.01788199       0.01130687      -0.00402061
Al       7.23328178      15.00561885       9.50296175       0.00771777      -0.00866005      -0.01873884
Al       5.00000000      13.10000000      14.49019523       0.11450835      -0.00601989      -0.24328174
Al       5.00000000      15.12500000      16.91239387       0.15464848       0.00550333      -0.87924497
Al       7.02500000      13.10000000      16.91239387       0.34027808      -0.00462711      -0.78174633
Al       7.02500000      15.12500000      14.49019523       0.40596744      -0.03773652      -0.14285640
Al       5.00000000      17.15000000       5.00000000      -0.17452931       0.01424134      -0.37491356
Al       5.00000000      19.17500000       7.02500000      -0.20427689      -0.14845510       1.36491655
Al       7.02500000      17.15000000       7.02500000       0.36189390      -0.05310339       1.65268434
Al       7.02500000      19.17500000       5.00000000       0.32622582       0.04075849      -0.78473829
Al       5.18759790      17.03971579       9.49367961       0.00507169       0.00066733      -0.04160339
Al       5.25946070      18.98237227      11.96604312       0.02544946      -0.03264773      -0.01199732
Al       7.29764622      16.99539462      11.98346269       0.02676873      -0.01808104      -0.01129864
Al       7.10900311      19.14925870       9.45263130       0.01043430      -0.00639327      -0.01452483
Al       5.00000000      17.15000000      14.49019523       0.18550896      -0.04243699      -0.17307540
Al       5.00000000      19.17500000      16.91239387       0.16579682       0.03805151      -0.87053999
Al       7.02500000      17.15000000      16.91239387       0.34097547       0.01594734      -0.78014423
Al       7.02500000      19.17500000      14.49019523       0.32068627       0.03114242      -0.05686333
Al       5.00000000      21.20000000       5.00000000      -0.07979787      -0.44867123      -0.24815601
Al       5.00000000      23.22500000       7.02500000       0.47384508      -0.47384508       0.98959534
Al       7.02500000      21.20000000       7.02500000       0.36717007      -0.36717007       1.53606376
Al       7.02500000      23.22500000       5.00000000       0.44867123       0.07979787      -0.24815601
Al       5.08687471      21.05061078       9.42422477       0.01847817      -0.01634049      -0.04146880
Al       6.81846083      21.40653917      11.98993883      -0.01036155       0.01036155      -0.03490438
Al       8.81288654      19.41211346      11.99525523      -0.02407533       0.02407533       0.00008709
Al       7.17438922      23.13812529       9.42422477       0.01634049      -0.01847817      -0.04146880
Al       5.00000000      21.20000000      14.49019523       0.19605683      -0.64130204      -0.00351600
Al       5.00000000      23.22500000      16.91239387       0.78961138      -0.78961138      -0.79245755
Al       7.02500000      21.20000000      16.91239387       0.33438898      -0.33438898      -0.82997339
Al       7.02500000      23.22500000      14.49019523       0.64130204      -0.19605683      -0.00351600
Al       9.05000000       5.00000000       5.00000000      -0.03784088      -0.18099420      -0.35653396
Al       9.05000000       7.02500000       7.02500000       0.03477158       0.37953073       1.61981627
Al      11.07500000       5.00000000       7.02500000      -0.00909538      -0.18775575       1.49349154
Al      11.07500000       7.02500000       5.00000000      -0.01596825       0.32598137      -0.80398992
Al       9.05303140       5.03000115       9.45768771      -0.00510372       0.01288306      -0.00600539
Al       9.15221488       7.22682773      12.02706096      -0.00470503       0.00306274      -0.00342079
Al      11.04027634       5.10273176      11.97127964      -0.00189547      -0.00315934       0.00777976
Al      10.98632506       7.16724056       9.49869870      -0.02942963       0.00456095      -0.02211827
Al       9.05000000       5.00000000      14.49019523       0.10890581       0.15366053      -0.05334226
Al       9.05000000       7.02500000      16.91239387      -0.04239372       0.34133781      -0.78564143
Al      11.07500000       5.00000000      16.91239387      -0.01808387       0.15620476      -0.87386946
Al      11.07500000       7.02500000      14.49019523       0.00745697       0.36834606      -0.11798521
Al       9.05000000       9.05000000       5.00000000      -0.04044840      -0.03747776      -0.86470512
Al       9.05000000      11.07500000       7.02500000       0.03584393       0.04291740       1.61071678
Al      11.07500000       9.05000000       7.02500000       0.05721887       0.01427594       1.72204348
Al      11.07500000      11.07500000       5.00000000      -0.01414606      -0.01149808      -0.86714914
Al       9.19388523       9.34244168       9.50501561       0.00027803       0.04169923      -0.00500758
Al       9.14956134      11.18117845      12.03021916      -0.01195437       0.01994575      -0.00753394
Al      11.14087322       9.18576242      12.00464820      -0.01716357       0.00646454      -0.00733408
Al      11.33852821      11.04875191       9.50248957       0.01543777       0.00647681      -0.00703601
Al       9.05000000       9.05000000      14.49019523       0.02953340       0.08259334      -0.03457556
Al       9.05000000      11.07500000      16.91239387      -0.04440304      -0.01624028      -0.72754494
Al      11.07500000       9.05000000      16.91239387      -0.01775987      -0.04340755      -0.72557043
Al      11.07500000      11.07500000      14.49019523       0.09066535      -0.00047698      -0.07761536
Al       9.05000000      13.10000000       5.00000000      -0.03969927      -0.00256612      -0.86760494
Al       9.05000000      15.12500000       7.02500000       0.00199927      -0.04558106       1.65160135
Al      11.07500000      13.10000000       7.02500000       0.00557804      -0.02376518       1.65086224
Al      11.07500000      15.12500000       5.00000000      -0.01359073       0.00545437      -0.85852957
Al       9.22172830      12.96306358       9.49452467      -0.00663965      -0.01074169      -0.00958298
Al       9.26958567      14.97203590      11.98807183       0.00818662      -0.01375184       0.00256702
Al      11.30418280      12.99280215      11.99312161       0.02496875       0.00887154      -0.00991623
Al      11.01707523      15.18566258       9.45552984      -0.01302700       0.00016165      -0.01301486
Al       9.05000000      13.10000000      14.49019523       0.05184835      -0.00368982      -0.08280060
Al       9.05000000      15.12500000      16.91239387      -0.04518624       0.00588503      -0.72130581
Al      11.07500000      13.10000000      16.91239387      -0.01737253      -0.00565200      -0.72282811
Al      11.07500000      15.12500000      14.49019523      -0.03186822       0.03650017      -0.07036939
Al       9.05000000      17.15000000       5.00000000      -0.03945339       0.01530267      -0.85494044
Al       9.05000000      19.17500000       7.02500000      -0.02129900       0.02129900       1.55886412
Al      11.07500000      17.15000000       7.02500000      -0.04577593       0.04577593       1.61843325
Al      11.07500000      19.17500000       5.00000000      -0.01530267       0.03945339      -0.85494044
Al       9.04743425      17.17690197       9.45059642      -0.00351643       0.00014067      -0.01869943
Al      10.81140687      17.41359313      11.97380988      -0.03227311       0.03227311      -0.01390146
Al      12.79865471      15.42634529      11.97046940      -0.03232540       0.03232540      -0.02204478
Al      11.04809803      19.17756575       9.45059642      -0.00014067       0.00351643      -0.01869943
Al       9.05000000      17.15000000      14.49019523      -0.02320871       0.03752440      -0.05617883
Al       9.05000000      19.17500000      16.91239387      -0.04292508       0.04292508      -0.72408845
Al      11.07500000      17.15000000      16.91239387      -0.01835292       0.01835292      -0.71963113
Al      11.07500000      19.17500000      14.49019523      -0.03752440       0.02320871      -0.05617883
Al       9.05000000      21.20000000       5.00000000      -0.04075849      -0.32622582      -0.78473829
Al       9.05000000      23.22500000       7.02500000       0.14845510       0.20427689       1.36491655
Al      11.07500000      21.20000000       7.02500000       0.05310339      -0.36189390       1.65268434
Al      11.07500000      23.22500000       5.00000000      -0.01424134       0.17452931      -0.37491356
Al       9.07574130      21.11599689       9.45263130       0.00639327      -0.01043430      -0.01452483
Al       9.24262773      22.96553930      11.96604312       0.03264773      -0.02544946      -0.01199732
Al      11.22960538      20.92735378      11.98346269       0.01808104      -0.02676873      -0.01129864
Al      11.18528421      23.03740210       9.49367961      -0.00066733      -0.00507169      -0.04160339
Al       9.05000000      21.20000000      14.49019523      -0.03114242      -0.32068627      -0.05686333
Al       9.05000000      23.22500000      16.91239387      -0.03805151      -0.16579682      -0.87053999
Al      11.07500000      21.20000000      16.91239387      -0.01594734      -0.34097547      -0.78014423
Al      11.07500000      23.22500000      14.49019523       0.04243699      -0.18550896      -0.17307540
Al      13.10000000       5.00000000       5.00000000      -0.00634400      -0.17656970      -0.37971377
Al      13.10000000       7.02500000       7.02500000       0.00591864       0.33076694       1.70324415
Al      15.12500000       5.00000000       7.02500000       0.05032761      -0.24590096       1.56170312
Al      15.12500000       7.02500000       5.00000000       0.00372685       0.32744192      -0.79920168
Al      13.07032733       5.17750341       9.50349608      -0.01665100       0.03370482      -0.00721274
Al      13.08067156       7.14593236      12.01306570      -0.01418746       0.00104059      -0.00273755
Al      15.14904557       5.15833657      11.97561464       0.00338434       0.00848650      -0.00038529
Al      15.27634361       7.02536562       9.48312256       0.01289284      -0.01356595      -0.01230905
Al      13.10000000       5.00000000      14.49019523      -0.01553876       0.13464730      -0.28960117
Al      13.10000000       7.02500000      16.91239387      -0.00591215       0.34071234      -0.78135235
Al      15.12500000       5.00000000      16.91239387       0.00413520       0.15710335      -0.87068528
Al      15.12500000       7.02500000      14.49019523       0.05759331       0.34156065      -0.13689868
Al      13.10000000       9.05000000       5.00000000      -0.00404254      -0.03828664      -0.86751092
Al      13.10000000      11.07500000       7.02500000       0.02098563      -0.03101456       1.57336412
Al      15.12500000       9.05000000       7.02500000      -0.03872782      -0.01973561       1.62123605
Al      15.12500000      11.07500000       5.00000000       0.00200067      -0.01097818      -0.85768129
Al      13.21989964       8.94487602       9.49235768      -0.00808664      -0.02760702      -0.00956561
Al      13.31347311      10.99371426      12.00599819       0.00630103      -0.02415848      -0.01017149
Al      15.27920346       8.97376065      11.99280394       0.01493219      -0.01323266      -0.00225484
Al      14.99696075      11.19284783       9.44405643      -0.00206972      -0.00710649      -0.00175441
Al      13.10000000       9.05000000      14.49019523       0.06316003      -0.01475632      -0.10110281
Al      13.10000000      11.07500000      16.91239387      -0.00638616      -0.01634971      -0.72319016
Al      15.12500000       9.05000000      16.91239387       0.00379995      -0.04443616      -0.72152905
Al      15.12500000      11.07500000      14.49019523      -0.00392363       0.02789717      -0.03246257
Al      13.10000000      13.10000000       5.00000000      -0.00424669      -0.00047316      -0.85453687
Al      13.10000000      15.12500000       7.02500000      -0.09636142       0.09636142       1.55651918
Al      15.12500000      13.10000000       7.02500000      -0.07922765       0.07922765       1.57798419
Al      15.12500000      15.12500000       5.00000000       0.00047316       0.00424669      -0.85453687
Al      13.03659857      13.22877142       9.44610133      -0.00313978       0.00330777      -0.01326479
Al      14.77983319      13.44516681      11.95384890      -0.01825353       0.01825353       0.00481846
Al      14.99622858      15.18840143       9.44610133      -0.00330777       0.00313978      -0.01326479
Al      13.10000000      13.10000000      14.49019523      -0.01413368       0.03828155      -0.03967967
Al      13.10000000      15.12500000      16.91239387      -0.00580237       0.00580237      -0.72023667
Al      15.12500000      13.10000000      16.91239387       0.00377114      -0.00377114      -0.71883640
Al      15.12500000      15.12500000      14.49019523      -0.03828155       0.01413368      -0.03967967
Al      13.10000000      17.15000000       5.00000000      -0.00545437       0.01359073      -0.85852957
Al      13.10000000      19.17500000       7.02500000       0.04558106      -0.00199927       1.65160135
Al      15.12500000      17.15000000       7.02500000       0.02376518      -0.00557804       1.65086224
Al      15.12500000      19.17500000       5.00000000       0.00256612       0.03969927      -0.86760494
Al      13.03933742      17.20792477       9.45552984      -0.00016165       0.01302700      -0.01301486
Al      13.25296410      18.95541433      11.98807183       0.01375184      -0.00818662       0.00256702
Al      15.23219785      16.92081720      11.99312161      -0.00887154      -0.02496875      -0.00991623
Al      15.26193642      19.00327170       9.49452467       0.01074169       0.00663965      -0.00958298
Al      13.10000000      17.15000000      14.49019523      -0.03650017       0.03186822      -0.07036939
Al      13.10000000      19.17500000      16.91239387      -0.00588503       0.04518624      -0.72130581
Al      15.12500000      17.15000000      16.91239387       0.00565200       0.01737253      -0.72282811
Al      15.12500000      19.17500000      14.49019523       0.00368982      -0.05184835      -0.08280060
Al      13.10000000      21.20000000       5.00000000      -0.00487820      -0.32731132      -0.80136425
Al      13.10000000      23.22500000       7.02500000       0.01505043       0.16460039       1.42634717
Al      15.12500000      21.20000000       7.02500000       0.01580472      -0.35409050       1.73205739
Al      15.12500000      23.22500000       5.00000000       0.00246216       0.18180409      -0.36432136
Al      13.21938115      20.99171822       9.50296175       0.00866005      -0.00771777      -0.01873884
Al      13.08206467      23.13113944      12.00553376      -0.03431226      -0.01062500      -0.01072166
Al      15.11628185      21.11985082      11.99890681      -0.01130687       0.01788199      -0.00402061
Al      15.05722385      23.19638475       9.48752559      -0.00259580      -0.00761594      -0.00359831
Al      13.10000000      21.20000000      14.49019523       0.03773652      -0.40596744      -0.14285640
Al      13.10000000      23.22500000      16.91239387      -0.00550333      -0.15464848      -0.87924497
Al      15.12500000      21.20000000      16.91239387       0.00462711      -0.34027808      -0.78174633
Al      15.12500000      23.22500000      14.49019523       0.00601989      -0.11450835      -0.24328174
Al      17.15000000       5.00000000       5.00000000       0.01968077      -0.18539523      -0.36249875
Al      17.15000000       7.02500000       7.02500000      -0.02355778       0.28811999       1.58569213
Al      19.17500000       5.00000000       7.02500000      -0.15383073      -0.19052453       1.15051752
Al      19.17500000       7.02500000       5.00000000       0.04053158       0.32433912      -0.78254130
Al      17.26786401       4.97406100       9.50695685       0.02006199      -0.00383842      -0.00436474
Al      17.31813288       7.05100320      11.99991225       0.01475380      -0.01504993      -0.00072400
Al      19.30846290       5.03728728      12.01076710       0.00100722      -0.01073337       0.01606348
Al      18.98583781       7.24474094       9.43041246       0.01449512      -0.00585815      -0.00582787
Al      17.15000000       5.00000000      14.49019523       0.07314914       0.10407772      -0.27360062
Al      17.15000000       7.02500000      16.91239387       0.01487018       0.34055446      -0.77978075
Al      19.17500000       5.00000000      16.91239387       0.03981539       0.15716391      -0.88221668
Al      19.17500000       7.02500000      14.49019523       0.00973840       0.36706710       0.03069908
Al      17.15000000       9.05000000       5.00000000       0.01306310      -0.03903334      -0.85329433
Al      17.15000000      11.07500000       7.02500000      -0.11560870       0.11560870       1.54606894
Al      19.17500000       9.05000000       7.02500000      -0.12253509       0.12253509       1.47901959
Al      19.17500000      11.07500000       5.00000000       0.03903334      -0.01306310      -0.85329433
Al      17.00657832       9.22584301       9.43968397       0.01449055      -0.01158638      -0.00507126
Al      16.74847164      11.47652836      11.94062805      -0.01116089       0.01116089      -0.00558057
Al      18.68969187       9.53530813      11.92799916      -0.01031165       0.01031165       0.01675691
Al      18.99915699      11.21842168       9.43968397       0.01158638      -0.01449055      -0.00507126
Al      17.15000000       9.05000000      14.49019523      -0.03346509       0.02917569      -0.02774741
Al      17.15000000      11.07500000      16.91239387       0.01574168      -0.01574168      -0.71522490
Al      19.17500000       9.05000000      16.91239387       0.04211170      -0.04211170      -0.71700896
Al      19.17500000      11.07500000      14.49019523      -0.02917569       0.03346509      -0.02774741
Al      17.15000000      13.10000000       5.00000000       0.01097818      -0.00200067      -0.85768129
Al      17.15000000      15.12500000       7.02500000       0.03101456      -0.02098563       1.57336412
Al      19.17500000      13.10000000       7.02500000       0.01973561       0.03872782       1.62123605
Al      19.17500000      15.12500000       5.00000000       0.03828664       0.00404254      -0.86751092
Al      17.03215217      13.22803925       9.44405643       0.00710649       0.00206972      -0.00175441
Al      17.23128574      14.91152689      12.00599819       0.02415848      -0.00630103      -0.01017149
Al      19.25123935      12.94579654      11.99280394       0.01323266      -0.01493219      -0.00225484
Al      19.28012398      15.00510036       9.49235768       0.02760702       0.00808664      -0.00956561
Al      17.15000000      13.10000000      14.49019523      -0.02789717       0.00392363      -0.03246257
Al      17.15000000      15.12500000      16.91239387       0.01634971       0.00638616      -0.72319016
Al      19.17500000      13.10000000      16.91239387       0.04443616      -0.00379995      -0.72152905
Al      19.17500000      15.12500000      14.49019523       0.01475632      -0.06316003      -0.10110281
Al      17.15000000      17.15000000       5.00000000       0.01149808       0.01414606      -0.86714914
Al      17.15000000      19.17500000       7.02500000      -0.04291740      -0.03584393       1.61071678
Al      19.17500000      17.15000000       7.02500000      -0.01427594      -0.05721887       1.72204348
Al      19.17500000      19.17500000       5.00000000       0.03747776       0.04044840      -0.86470512
Al      17.17624809      16.88647179       9.50248957      -0.00647681      -0.01543777      -0.00703601
Al      17.04382155      19.07543866      12.03021916      -0.01994575       0.01195437      -0.00753394
Al      19.03923758      17.08412678      12.00464820      -0.00646454       0.01716357      -0.00733408
Al      18.88255832      19.03111477       9.50501561      -0.04169923      -0.00027803      -0.00500758
Al      17.15000000      17.15000000      14.49019523       0.00047698      -0.09066535      -0.07761536
Al      17.15000000      19.17500000      16.91239387       0.01624028       0.04440304      -0.72754494
Al      19.17500000      17.15000000      16.91239387       0.04340755       0.01775987      -0.72557043
Al      19.17500000      19.17500000      14.49019523      -0.08259334      -0.02953340      -0.03457556
Al      17.15000000      21.20000000       5.00000000       0.01294948      -0.32580459      -0.79913528
Al      17.15000000      23.22500000       7.02500000      -0.01734479       0.24614643       1.50379202
Al      19.17500000      21.20000000       7.02500000      -0.06667836      -0.37735003       1.68312151
Al      19.17500000      23.22500000       5.00000000       0.03609643       0.17782277      -0.36061293
Al      17.08953403      21.18090347       9.48368998      -0.00647024       0.02386222      -0.01543944
Al      17.12950176      23.18240989      11.97186301       0.01005996      -0.00587707       0.00366763
Al      19.00681620      21.04267611      11.99702509       0.00148860       0.00001238       0.00065046
Al      19.19118590      23.14612165       9.46749739       0.01750345      -0.01597523       0.00054380
Al      17.15000000      21.20000000      14.49019523      -0.04469385      -0.32106831      -0.12955461
Al      17.15000000      23.22500000      16.91239387       0.01560867      -0.15462712      -0.87672274
Al      19.17500000      21.20000000      16.91239387       0.04133450      -0.34117461      -0.78375043
Al      19.17500000      23.22500000      14.49019523      -0.11968301      -0.15005556      -0.10555537
Al      21.20000000       5.00000000       5.00000000      -0.45370436      -0.07624579      -0.25547027
Al      21.20000000       7.02500000       7.02500000      -0.50932996       0.50932996       1.41242847
Al      23.22500000       5.00000000       7.02500000      -0.51457345       0.51457345       1.17710121
Al      23.22500000       7.02500000       5.00000000       0.07624579       0.45370436      -0.25547027
Al      20.93604609       5.21799687       9.40294461      -0.00688744       0.01303279       0.00337947
Al      20.61484314       7.61015686      11.91649916       0.00603366      -0.00603366       0.00703211
Al      22.53453592       5.69046408      11.89814025       0.05093990      -0.05093990       0.00524997
Al      23.00700313       7.28895391       9.40294461      -0.01303279       0.00688744       0.00337947
Al      21.20000000       5.00000000      14.49019523      -0.55048544       0.28269375       0.14297189
Al      21.20000000       7.02500000      16.91239387      -0.33550573       0.33550573      -0.82446736
Al      23.22500000       5.00000000      16.91239387      -0.77028883       0.77028883      -0.87954609
Al      23.22500000       7.02500000      14.49019523      -0.28269375       0.55048544       0.14297189
Al      21.20000000       9.05000000       5.00000000      -0.32433912      -0.04053158      -0.78254130
Al      21.20000000      11.07500000       7.02500000      -0.28811999       0.02355778       1.58569213
Al      23.22500000       9.05000000       7.02500000       0.19052453       0.15383073       1.15051752
Al      23.22500000      11.07500000       5.00000000       0.18539523      -0.01968077      -0.36249875
Al      20.98025906       9.23916219       9.43041246       0.00585815      -0.01449512      -0.00582787
Al      21.17399680      10.90686712      11.99991225       0.01504993      -0.01475380      -0.00072400
Al      23.18771272       8.91653710      12.01076710       0.01073337      -0.00100722       0.01606348
Al      23.25093900      10.95713599       9.50695685       0.00383842      -0.02006199      -0.00436474
Al      21.20000000       9.05000000      14.49019523      -0.36706710      -0.00973840       0.03069908
Al      21.20000000      11.07500000      16.91239387      -0.34055446      -0.01487018      -0.77978075
Al      23.22500000       9.05000000      16.91239387      -0.15716391      -0.03981539      -0.88221668
Al      23.22500000      11.07500000      14.49019523      -0.10407772      -0.07314914      -0.27360062
Al      21.20000000      13.10000000       5.00000000      -0.32744192      -0.00372685      -0.79920168
Al      21.20000000      15.12500000       7.02500000      -0.33076694      -0.00591864       1.70324415
Al      23.22500000      13.10000000       7.02500000       0.24590096      -0.05032761       1.56170312
Al      23.22500000      15.12500000       5.00000000       0.17656970       0.00634400      -0.37971377
Al      21.19963438      12.94865639       9.48312256       0.01356595      -0.01289284      -0.01230905
Al      21.07906764      15.14432844      12.01306570      -0.00104059       0.01418746      -0.00273755
Al      23.06666343      13.07595443      11.97561464      -0.00848650      -0.00338434      -0.00038529
Al      23.04749659      15.15467267       9.50349608      -0.03370482       0.01665100      -0.00721274
Al      21.20000000      13.10000000      14.49019523      -0.34156065      -0.05759331      -0.13689868
Al      21.20000000      15.12500000      16.91239387      -0.34071234       0.00591215      -0.78135235
Al      23.22500000      13.10000000      16.91239387      -0.15710335      -0.00413520      -0.87068528
Al      23.22500000      15.12500000      14.49019523      -0.13464730       0.01553876      -0.28960117
Al      21.20000000      17.15000000       5.00000000      -0.32598137       0.01596825      -0.80398992
Al      21.20000000      19.17500000       7.02500000      -0.37953073      -0.03477158       1.61981627
Al      23.22500000      17.15000000       7.02500000       0.18775575       0.00909538       1.49349154
Al      23.22500000      19.17500000       5.00000000       0.18099420       0.03784088      -0.35653396
Al      21.05775944      17.23867494       9.49869870      -0.00456095       0.02942963      -0.02211827
Al      20.99817227      19.07278512      12.02706096      -0.00306274       0.00470503      -0.00342079
Al      23.12226824      17.18472366      11.97127964       0.00315934       0.00189547       0.00777976
Al      23.19499885      19.17196860       9.45768771      -0.01288306       0.00510372      -0.00600539
Al      21.20000000      17.15000000      14.49019523      -0.36834606      -0.00745697      -0.11798521