299
Lattice="28.224999999999998 0.0 0.0 0.0 28.224999999999998 0.0 0.0 0.0 20.125" Properties=species:S:1:pos:R:3:forces:R:3 energy=-16419.072967446024 pbc="T T T"
Al       5.00000000       5.00000000       5.00000000       0.38346138       0.38245216       0.01301882
Al       5.00000000       7.02500000       7.02500000      -0.02519786       0.53150738       1.31405551
Al       7.02500000       5.00000000       7.02500000       0.55681042      -0.03092311       1.34832856
Al       7.02500000       7.02500000       5.00000000       0.32064472       0.32224511      -0.77845805
Al       5.60580036       5.60485921       9.65163461       0.00972716       0.00559324      -0.01628084
Al       5.30549629       7.30892723      12.21715977       0.01058856       0.00106968      -0.00364274
Al       7.33949821       5.22002371      12.19917675       0.00763023       0.00457927      -0.01909214
Al       7.57345500       7.45792723       9.64993765       0.02932868       0.02271481      -0.00640599
Al       5.00000000       5.00000000      14.74707788       1.01358988       0.99135834      -0.26215605
Al       5.00000000       7.02500000      17.24267156       0.30141889       0.48273341      -1.07255388
Al       7.02500000       5.00000000      17.24267156       0.48212520       0.29930204      -1.07465904
Al       7.02500000       7.02500000      14.74707788       0.50164020       0.46379501       0.06350215
Al       5.00000000       9.05000000       5.00000000      -0.17341949      -0.03634065      -0.40024556
Al       5.00000000      11.07500000       7.02500000      -0.21994789       0.03728172       1.65426822
Al       7.02500000       9.05000000       7.02500000       0.42555745       0.05550971       1.88610656
Al       7.02500000      11.07500000       5.00000000       0.32587943      -0.01031150      -0.82985018
Al       5.15976117       8.99046827       9.54333647       0.04461274       0.00415982       0.00340287
Al       5.08955478      11.09077361      12.13540481       0.01045119       0.00284482       0.00228186
Al       7.26617279       9.28793066      12.15490361       0.02008704       0.01092897      -0.00376033
Al       6.99184316      11.21150994       9.56284370      -0.01840482       0.04676124      -0.01753019
Al       5.00000000       9.05000000      14.74707788       0.23303400       0.13637274      -0.05172986
Al       5.00000000      11.07500000      17.24267156       0.18942326      -0.01410944      -0.97373413
Al       7.02500000       9.05000000      17.24267156       0.34430170      -0.03995883      -0.91855955
Al       7.02500000      11.07500000      14.74707788       0.33124212       0.05957274      -0.10178974
Al       5.00000000      13.10000000       5.00000000      -0.17870368       0.00139302      -0.40203388
Al       5.00000000      15.12500000       7.02500000      -0.11044425      -0.01210809       1.47746197
Al       7.02500000      13.10000000       7.02500000       0.36323846       0.00824146       1.88663812
Al       7.02500000      15.12500000       5.00000000       0.32852258       0.00831483      -0.82861985
Al       5.02795182      13.26612356       9.58592101      -0.00519376       0.03457624      -0.00142393
Al       5.13203752      15.25569144      12.18610792       0.00382767       0.01996607       0.00478313
Al       7.08268008      13.18433369      12.17531797      -0.01305027       0.01790349       0.00334038
Al       7.34604683      14.93989089       9.59366921       0.03544798      -0.03053822      -0.01509209
Al       5.00000000      13.10000000      14.74707788       0.17902516       0.02670377      -0.23482629
Al       5.00000000      15.12500000      17.24267156       0.19075436       0.00812767      -0.97852665
Al       7.02500000      13.10000000      17.24267156       0.34507786      -0.00189723      -0.91971178
Al       7.02500000      15.12500000      14.74707788       0.43919323       0.00431284      -0.10619292
Al       5.00000000      17.15000000       5.00000000      -0.16907882       0.01482371      -0.40820653
Al       5.00000000      19.17500000       7.02500000      -0.15232750      -0.18465604       1.42948235
Al       7.02500000      17.15000000       7.02500000       0.39787758      -0.06506092       1.73051295
Al       7.02500000      19.17500000       5.00000000       0.32770168       0.04130396      -0.80333131
Al       5.28597643      16.98191646       9.55616422       0.04794881      -0.02603561      -0.01815629
Al       5.43252754      18.90697265      12.11206604       0.00326194      -0.01153065      -0.01679002
Al       7.46963882      16.91875793      12.11911577       0.01498356      -0.00189655      -0.00690763
Al       7.13168212      19.14263236       9.50164985      -0.00297769       0.01194228      -0.01911847
Al       5.00000000      17.15000000      14.74707788       0.27454289       0.00533066      -0.08011583
Al       5.00000000      19.17500000      17.24267156       0.20401929       0.03825298      -0.96349828
Al       7.02500000      17.15000000      17.24267156       0.34577002       0.01638915      -0.91581961
Al       7.02500000      19.17500000      14.74707788       0.36201123       0.03044451       0.02745687
Al       5.00000000      21.20000000       5.00000000      -0.07551445      -0.44997208      -0.27261667
Al       5.00000000      23.22500000       7.02500000       0.50963365      -0.50963365       1.03039036
Al       7.02500000      21.20000000       7.02500000       0.39946320      -0.39946320       1.58583135
Al       7.02500000      23.22500000       5.00000000       0.44997208       0.07551445      -0.27261667
Al       5.12448198      21.02181396       9.45211955      -0.00175963      -0.00206990      -0.02442148
Al       6.68010621      21.54489379      12.13219487       0.01124671      -0.01124671      -0.01986888
Al       8.67190811      19.55309189      12.15191849       0.00325809      -0.00325809      -0.00963757
Al       7.20318604      23.10051802       9.45211955       0.00206990       0.00175963      -0.02442148
Al       5.00000000      21.20000000      14.74707788       0.29322423      -0.69044624       0.11884322
Al       5.00000000      23.22500000      17.24267156       0.82819370      -0.82819370      -0.87281094
Al       7.02500000      21.20000000      17.24267156       0.33748151      -0.33748151      -0.96520049
Al       7.02500000      23.22500000      14.74707788       0.69044624      -0.29322423       0.11884322
Al       9.05000000       5.00000000       5.00000000      -0.03865166      -0.18081886      -0.39022055
Al       9.05000000       7.02500000       7.02500000       0.00745937       0.37394348       1.72129299
Al      11.07500000       5.00000000       7.02500000      -0.01703336      -0.11440896       1.61288274
Al      11.07500000       7.02500000       5.00000000      -0.01699012       0.32606424      -0.83681564
Al       9.05809328       5.03809262       9.52168056       0.01490724       0.01751672      -0.01131036
Al       9.20520219       7.28339751      12.24790782       0.00157570       0.01469361       0.00816094
Al      11.03131764       5.13483956      12.13101300      -0.00544032       0.00167004       0.00458261
Al      10.87834661       7.27656137       9.59865307      -0.01506940       0.03670731      -0.01298734
Al       9.05000000       5.00000000      14.74707788       0.11621555       0.21563442      -0.00202350
Al       9.05000000       7.02500000      17.24267156      -0.04284798       0.34519408      -0.92306547
Al      11.07500000       5.00000000      17.24267156      -0.01900662       0.18889551      -0.97200079
Al      11.07500000       7.02500000      14.74707788       0.00545453       0.38934221      -0.02361748
Al       9.05000000       9.05000000       5.00000000      -0.04086523      -0.03558118      -0.90036800
Al       9.05000000      11.07500000       7.02500000       0.01169388       0.05856520       1.70476774
Al      11.07500000       9.05000000       7.02500000       0.02982238       0.03950557       1.95158300
Al      11.07500000      11.07500000       5.00000000      -0.01455382      -0.00822730      -0.89473129
Al       9.22285748       9.56882813       9.63191280       0.00352078       0.07172813      -0.00632338
Al       9.15126713      11.31597072      12.24737393      -0.00877192       0.03708150       0.00268938
Al      11.11903718       9.30889423      12.17085382      -0.01865253       0.02530369      -0.00222082
Al      11.51530886      11.00611481       9.59669379       0.05312244      -0.00987112      -0.01663565
Al       9.05000000       9.05000000      14.74707788       0.02388879       0.13561336       0.04108191
Al       9.05000000      11.07500000      17.24267156      -0.04456077      -0.01260948      -0.86919115
Al      11.07500000       9.05000000      17.24267156      -0.01868347      -0.04151248      -0.86495123
Al      11.07500000      11.07500000      14.74707788       0.10503825       0.03626371      -0.01464223
Al       9.05000000      13.10000000       5.00000000      -0.03959988      -0.00004133      -0.89538919
Al       9.05000000      15.12500000       7.02500000       0.00951287      -0.06214994       1.75437079
Al      11.07500000      13.10000000       7.02500000       0.00809528      -0.04649853       1.79328055
Al      11.07500000      15.12500000       5.00000000      -0.01463327       0.00864279      -0.87520062
Al       9.32365190      12.87132901       9.58639460       0.03890886      -0.00548661      -0.01333353
Al       9.41183545      14.87531800      12.14448810       0.00355952      -0.00600556       0.01015193
Al      11.46554983      12.92555162      12.13999512       0.01139345       0.00241412      -0.00744914
Al      10.98831252      15.20687817       9.50567644      -0.01287705       0.01462133      -0.01442548
Al       9.05000000      13.10000000      14.74707788       0.04144773       0.06782129       0.03635276
Al       9.05000000      15.12500000      17.24267156      -0.04479490       0.00798690      -0.86101219
Al      11.07500000      13.10000000      17.24267156      -0.01841877      -0.00251304      -0.86341952
Al      11.07500000      15.12500000      14.74707788      -0.00183451       0.02039736      -0.02835357
Al       9.05000000      17.15000000       5.00000000      -0.03886565       0.01751855      -0.86908453
Al       9.05000000      19.17500000       7.02500000      -0.03167945       0.03167945       1.63176249
Al      11.07500000      17.15000000       7.02500000      -0.04139583       0.04139583       1.70722426
Al      11.07500000      19.17500000       5.00000000      -0.01751855       0.03886565      -0.86908453
Al       9.04483537      17.18980039       9.48023481      -0.01045372       0.00722898      -0.01788863
Al      10.67718231      17.54781769      12.10583676      -0.01002661       0.01002661      -0.01502007
Al      12.66725833      15.55774167      12.11130457      -0.02891657       0.02891657      -0.01603275
Al      11.03519961      19.18016463       9.48023481      -0.00722898       0.01045372      -0.01788863
Al       9.05000000      17.15000000      14.74707788      -0.00283787       0.03677295      -0.01560535
Al       9.05000000      19.17500000      17.24267156      -0.04245702       0.04245702      -0.86195923
Al      11.07500000      17.15000000      17.24267156      -0.01902436       0.01902436      -0.85909797
Al      11.07500000      19.17500000      14.74707788      -0.03677295       0.00283787      -0.01560535
Al       9.05000000      21.20000000       5.00000000      -0.04130396      -0.32770168      -0.80333131
Al       9.05000000      23.22500000       7.02500000       0.18465604       0.15232750       1.42948235
Al      11.07500000      21.20000000       7.02500000       0.06506092      -0.39787758       1.73051295
Al      11.07500000      23.22500000       5.00000000      -0.01482371       0.16907882      -0.40820653
Al       9.08236764      21.09331788       9.50164985      -0.01194228       0.00297769      -0.01911847
Al       9.31802735      22.79247246      12.11206604       0.01153065      -0.00326194      -0.01679002
Al      11.30624207      20.75536118      12.11911577       0.00189655      -0.01498356      -0.00690763
Al      11.24308354      22.93902357       9.55616422       0.02603561      -0.04794881      -0.01815629
Al       9.05000000      21.20000000      14.74707788      -0.03044451      -0.36201123       0.02745687
Al       9.05000000      23.22500000      17.24267156      -0.03825298      -0.20401929      -0.96349828
Al      11.07500000      21.20000000      17.24267156      -0.01638915      -0.34577002      -0.91581961
Al      11.07500000      23.22500000      14.74707788      -0.00533066      -0.27454289      -0.08011583
Al      13.10000000       5.00000000       5.00000000      -0.00866063      -0.16939115      -0.42823130
Al      13.10000000       7.02500000       7.02500000      -0.00856732       0.38044714       1.77072946
Al      15.12500000       5.00000000       7.02500000       0.05586838      -0.20361306       1.70773685
Al      15.12500000       7.02500000       5.00000000       0.00236633       0.32831137      -0.82601302
Al      13.01843957       5.34958709       9.60088922      -0.02099762       0.02237917      -0.00245432
Al      13.01754159       7.23390389      12.21669426      -0.02014932       0.00305405       0.01284663
Al      15.13632397       5.28905416      12.13724236      -0.00925638       0.01289885      -0.00124817
Al      15.39011602       6.99020798       9.54371006       0.02815747      -0.03666317      -0.02149736
Al      13.10000000       5.00000000      14.74707788      -0.02793473       0.22472954      -0.25016518
Al      13.10000000       7.02500000      17.24267156      -0.00770152       0.34463923      -0.91904219
Al      15.12500000       5.00000000      17.24267156       0.00214701       0.19080971      -0.96544847
Al      15.12500000       7.02500000      14.74707788       0.05592936       0.39077333      -0.06099999
Al      13.10000000       9.05000000       5.00000000      -0.00508056      -0.03692779      -0.89625999
Al      13.10000000      11.07500000       7.02500000       0.04502981      -0.04166169       1.64168545
Al      15.12500000       9.05000000       7.02500000      -0.03701169      -0.02893754       1.78377391
Al      15.12500000      11.07500000       5.00000000      -0.00021370      -0.00858169      -0.88060085
Al      13.29168871       8.83981251       9.58385025       0.02635294      -0.03293316      -0.01028246
Al      13.44652171      10.92302101      12.18136257       0.00455515      -0.00420076       0.00574465
Al      15.37091211       8.89812349      12.14939285      -0.01239303      -0.00080608       0.00179567
Al      14.95000138      11.22004565       9.50435244      -0.02757976       0.02807492      -0.00837596
Al      13.10000000       9.05000000      14.74707788       0.04838694       0.02040330      -0.04045511
Al      13.10000000      11.07500000      17.24267156      -0.00791955      -0.01317684      -0.86383788
Al      15.12500000       9.05000000      17.24267156       0.00123698      -0.04230988      -0.86011202
Al      15.12500000      11.07500000      14.74707788       0.04910259       0.01023461       0.02078333
Al      13.10000000      13.10000000       5.00000000      -0.00617110       0.00286108      -0.87046626
Al      13.10000000      15.12500000       7.02500000      -0.12982724       0.12982724       1.62237167
Al      15.12500000      13.10000000       7.02500000      -0.08505009       0.08505009       1.71209040
Al      15.12500000      15.12500000       5.00000000      -0.00286108       0.00617110      -0.87046626
Al      13.01236262      13.28342219       9.48573189      -0.01908319       0.02210311      -0.01983871
Al      14.66148426      13.56351574      12.09278270      -0.03260426       0.03260426       0.00267414
Al      14.94157781      15.21263738       9.48573189      -0.02210311       0.01908319      -0.01983871
Al      13.10000000      13.10000000      14.74707788       0.02269250       0.02434709       0.00093974
Al      13.10000000      15.12500000      17.24267156      -0.00801237       0.00801237      -0.86034096
Al      15.12500000      13.10000000      17.24267156       0.00116410      -0.00116410      -0.85915569
Al      15.12500000      15.12500000      14.74707788      -0.02434709      -0.02269250       0.00093974
Al      13.10000000      17.15000000       5.00000000      -0.00864279       0.01463327      -0.87520062
Al      13.10000000      19.17500000       7.02500000       0.06214994      -0.00951287       1.75437079
Al      15.12500000      17.15000000       7.02500000       0.04649853      -0.00809528       1.79328055
Al      15.12500000      19.17500000       5.00000000       0.00004133       0.03959988      -0.89538919
Al      13.01812183      17.23668748       9.50567644      -0.01462133       0.01287705      -0.01442548
Al      13.34968200      18.81316455      12.14448810       0.00600556      -0.00355952       0.01015193
Al      15.29944838      16.75945017      12.13999512      -0.00241412      -0.01139345      -0.00744914
Al      15.35367099      18.90134810       9.58639460       0.00548661      -0.03890886      -0.01333353
Al      13.10000000      17.15000000      14.74707788      -0.02039736       0.00183451      -0.02835357
Al      13.10000000      19.17500000      17.24267156      -0.00798690       0.04479490      -0.86101219
Al      15.12500000      17.15000000      17.24267156       0.00251304       0.01841877      -0.86341952
Al      15.12500000      19.17500000      14.74707788      -0.06782129      -0.04144773       0.03635276
Al      13.10000000      21.20000000       5.00000000      -0.00831483      -0.32852258      -0.82861985
Al      13.10000000      23.22500000       7.02500000       0.01210809       0.11044425       1.47746197
Al      15.12500000      21.20000000       7.02500000      -0.00824146      -0.36323846       1.88663812
Al      15.12500000      23.22500000       5.00000000      -0.00139302       0.17870368      -0.40203388
Al      13.28510911      20.87895317       9.59366921       0.03053822      -0.03544798      -0.01509209
Al      12.96930856      23.09296248      12.18610792      -0.01996607      -0.00382767       0.00478313
Al      15.04066631      21.14231992      12.17531797      -0.01790349       0.01305027       0.00334038
Al      14.95887644      23.19704818       9.58592101      -0.03457624       0.00519376      -0.00142393
Al      13.10000000      21.20000000      14.74707788      -0.00431284      -0.43919323      -0.10619292
Al      13.10000000      23.22500000      17.24267156      -0.00812767      -0.19075436      -0.97852665
Al      15.12500000      21.20000000      17.24267156       0.00189723      -0.34507786      -0.91971178
Al      15.12500000      23.22500000      14.74707788      -0.02670377      -0.17902516      -0.23482629
Al      17.15000000       5.00000000       5.00000000       0.02048863      -0.18455191      -0.40200647
Al      17.15000000       7.02500000       7.02500000       0.02802676       0.28368157       1.68267477
Al      19.17500000       5.00000000       7.02500000      -0.12179004      -0.14880727       1.27763816
Al      19.17500000       7.02500000       5.00000000       0.03958430       0.32433509      -0.81222372
Al      17.36708544       4.95313949       9.61686059       0.02759121      -0.01970993       0.00308466
Al      17.42409472       7.03392609      12.17243594      -0.00159507      -0.01503208       0.00721083
Al      19.37525153       5.02925207      12.21140120       0.00351275      -0.02046511       0.01680497
Al      18.94020433       7.30035577       9.49514156      -0.00211434       0.01536783      -0.01110343
Al      17.15000000       5.00000000      14.74707788       0.07291229       0.17728984      -0.25514146
Al      17.15000000       7.02500000      17.24267156       0.01297694       0.34368493      -0.91497402
Al      19.17500000       5.00000000      17.24267156       0.04003303       0.18714004      -0.98303744
Al      19.17500000       7.02500000      14.74707788       0.07702736       0.35860365       0.06604822
Al      17.15000000       9.05000000       5.00000000       0.01082683      -0.03820721      -0.87808527
Al      17.15000000      11.07500000       7.02500000      -0.12556572       0.12556572       1.67722490
Al      19.17500000       9.05000000       7.02500000      -0.13153685       0.13153685       1.60432745
Al      19.17500000      11.07500000       5.00000000       0.03820721      -0.01082683      -0.87808527
Al      16.96994078       9.27576486       9.50685519      -0.02300747       0.03012800      -0.00589986
Al      16.63702026      11.58797974      12.08359598      -0.00736551       0.00736551       0.00852061
Al      18.58121327       9.64378673      12.08401414      -0.01087334       0.01087334       0.01440809
Al      18.94923514      11.25505922       9.50685519      -0.03012800       0.02300747      -0.00589986
Al      17.15000000       9.05000000      14.74707788      -0.01043562       0.00077983      -0.01001922
Al      17.15000000      11.07500000      17.24267156       0.01294946      -0.01294946      -0.85372160
Al      19.17500000       9.05000000      17.24267156       0.04086631      -0.04086631      -0.85285920
Al      19.17500000      11.07500000      14.74707788      -0.00077983       0.01043562      -0.01001922
Al      17.15000000      13.10000000       5.00000000       0.00858169       0.00021370      -0.88060085
Al      17.15000000      15.12500000       7.02500000       0.04166169      -0.04502981       1.64168545
Al      19.17500000      13.10000000       7.02500000       0.02893754       0.03701169       1.78377391
Al      19.17500000      15.12500000       5.00000000       0.03692779       0.00508056      -0.89625999
Al      17.00495435      13.27499862       9.50435244      -0.02807492       0.02757976      -0.00837596
Al      17.30197899      14.77847829      12.18136257       0.00420076      -0.00455515       0.00574465
Al      19.32687651      12.85408789      12.14939285       0.00080608       0.01239303       0.00179567
Al      19.38518749      14.93331129       9.58385025       0.03293316      -0.02635294      -0.01028246
Al      17.15000000      13.10000000      14.74707788      -0.01023461      -0.04910259       0.02078333
Al      17.15000000      15.12500000      17.24267156       0.01317684       0.00791955      -0.86383788
Al      19.17500000      13.10000000      17.24267156       0.04230988      -0.00123698      -0.86011202
Al      19.17500000      15.12500000      14.74707788      -0.02040330      -0.04838694      -0.04045511
Al      17.15000000      17.15000000       5.00000000       0.00822730       0.01455382      -0.89473129
Al      17.15000000      19.17500000       7.02500000      -0.05856520      -0.01169388       1.70476774
Al      19.17500000      17.15000000       7.02500000      -0.03950557      -0.02982238       1.95158300
Al      19.17500000      19.17500000       5.00000000       0.03558118       0.04086523      -0.90036800
Al      17.21888519      16.70969114       9.59669379       0.00987112      -0.05312244      -0.01663565
Al      16.90902928      19.07373287      12.24737393      -0.03708150       0.00877192       0.00268938
Al      18.91610577      17.10596282      12.17085382      -0.02530369       0.01865253      -0.00222082
Al      18.65617187      19.00214252       9.63191280      -0.07172813      -0.00352078      -0.00632338
Al      17.15000000      17.15000000      14.74707788      -0.03626371      -0.10503825      -0.01464223
Al      17.15000000      19.17500000      17.24267156       0.01260948       0.04456077      -0.86919115
Al      19.17500000      17.15000000      17.24267156       0.04151248       0.01868347      -0.86495123
Al      19.17500000      19.17500000      14.74707788      -0.13561336      -0.02388879       0.04108191
Al      17.15000000      21.20000000       5.00000000       0.01031150      -0.32587943      -0.82985018
Al      17.15000000      23.22500000       7.02500000      -0.03728172       0.21994789       1.65426822
Al      19.17500000      21.20000000       7.02500000      -0.05550971      -0.42555745       1.88610656
Al      19.17500000      23.22500000       5.00000000       0.03634065       0.17341949      -0.40024556
Al      17.01349006      21.23315684       9.56284370      -0.04676124       0.01840482      -0.01753019
Al      17.13422639      23.13544522      12.13540481      -0.00284482      -0.01045119       0.00228186
Al      18.93706934      20.95882721      12.15490361      -0.01092897      -0.02008704      -0.00376033
Al      19.23453173      23.06523883       9.54333647      -0.00415982      -0.04461274       0.00340287
Al      17.15000000      21.20000000      14.74707788      -0.05957274      -0.33124212      -0.10178974
Al      17.15000000      23.22500000      17.24267156       0.01410944      -0.18942326      -0.97373413
Al      19.17500000      21.20000000      17.24267156       0.03995883      -0.34430170      -0.91855955
Al      19.17500000      23.22500000      14.74707788      -0.13637274      -0.23303400      -0.05172986
Al      21.20000000       5.00000000       5.00000000      -0.45335795      -0.07541342      -0.29975748
Al      21.20000000       7.02500000       7.02500000      -0.51049723       0.51049723       1.57272928
Al      23.22500000       5.00000000       7.02500000      -0.57178580       0.57178580       1.21794919
Al      23.22500000       7.02500000       5.00000000       0.07541342       0.45335795      -0.29975748
Al      20.88155748       5.28413921       9.49390572      -0.00351464      -0.00971988       0.00885905
Al      20.52965593       7.69534407      12.06572215      -0.02054370       0.02054370      -0.00040489
Al      22.46163158       5.76336842      12.08432010       0.01768790      -0.01768790      -0.00091876
Al      22.94086079       7.34344252       9.49390572       0.00971988       0.00351464       0.00885905
Al      21.20000000       5.00000000      14.74707788      -0.52014895       0.32447514       0.23228386
Al      21.20000000       7.02500000      17.24267156      -0.33714879       0.33714879      -0.95662834
Al      23.22500000       5.00000000      17.24267156      -0.80923172       0.80923172      -0.93587684
Al      23.22500000       7.02500000      14.74707788      -0.32447514       0.52014895       0.23228386
Al      21.20000000       9.05000000       5.00000000      -0.32433509      -0.03958430      -0.81222372
Al      21.20000000      11.07500000       7.02500000      -0.28368157      -0.02802676       1.68267477
Al      23.22500000       9.05000000       7.02500000       0.14880727       0.12179004       1.27763816
Al      23.22500000      11.07500000       5.00000000       0.18455191      -0.02048863      -0.40200647
Al      20.92464423       9.28479567       9.49514156      -0.01536783       0.00211434      -0.01110343
Al      21.19107391      10.80090528      12.17243594       0.01503208       0.00159507       0.00721083
Al      23.19574793       8.84974847      12.21140120       0.02046511      -0.00351275       0.01680497
Al      23.27186051      10.85791456       9.61686059       0.01970993      -0.02759121       0.00308466
Al      21.20000000       9.05000000      14.74707788      -0.35860365      -0.07702736       0.06604822
Al      21.20000000      11.07500000      17.24267156      -0.34368493      -0.01297694      -0.91497402
Al      23.22500000       9.05000000      17.24267156      -0.18714004      -0.04003303      -0.98303744
Al      23.22500000      11.07500000      14.74707788      -0.17728984      -0.07291229      -0.25514146
Al      21.20000000      13.10000000       5.00000000      -0.32831137      -0.00236633      -0.82601302
Al      21.20000000      15.12500000       7.02500000      -0.38044714       0.00856732       1.77072946
Al      23.22500000      13.10000000       7.02500000       0.20361306      -0.05586838       1.70773685
Al      23.22500000      15.12500000       5.00000000       0.16939115       0.00866063      -0.42823130
Al      21.23479202      12.83488398       9.54371006       0.03666317      -0.02815747      -0.02149736
Al      20.99109611      15.20745841      12.21669426      -0.00305405       0.02014932       0.01284663
Al      22.93594584      13.08867603      12.13724236      -0.01289885       0.00925638      -0.00124817
Al      22.87541291      15.20656043       9.60088922      -0.02237917       0.02099762      -0.00245432
Al      21.20000000      13.10000000      14.74707788      -0.39077333      -0.05592936      -0.06099999
Al      21.20000000      15.12500000      17.24267156      -0.34463923       0.00770152      -0.91904219
Al      23.22500000      13.10000000      17.24267156      -0.19080971      -0.00214701      -0.96544847
Al      23.22500000      15.12500000      14.74707788      -0.22472954       0.02793473      -0.25016518
Al      21.20000000      17.15000000       5.00000000      -0.32606424       0.01699012      -0.83681564
Al      21.20000000      19.17500000       7.02500000      -0.37394348      -0.00745937       1.72129299
Al      23.22500000      17.15000000       7.02500000       0.11440896       0.01703336       1.61288274
Al      23.22500000      19.17500000       5.00000000       0.18081886       0.03865166      -0.39022055
Al      20.94843863      17.34665339       9.59865307      -0.03670731       0.01506940      -0.01298734
Al      20.94160249      19.01979781      12.24790782      -0.01469361      -0.00157570       0.00816094
Al      23.09016044      17.19368236      12.13101300      -0.00167004       0.00544032       0.00458261
Al      23.18690738      19.16690672       9.52168056      -0.01751672      -0.01490724      -0.01131036
Al      21.20000000      17.15000000      14.74707788      -0.38934221      -0.00545453      -0.02361748