299
Lattice="28.224999999999998 0.0 0.0 0.0 28.224999999999998 0.0 0.0 0.0 20.125" Properties=species:S:1:pos:R:3:forces:R:3 energy=-16424.25757363568 pbc="T T T"
Al       5.00000000       5.00000000       5.00000000       0.39008345       0.38980884       0.02997143
Al       5.00000000       7.02500000       7.02500000      -0.02967575       0.54259344       1.25719884
Al       7.02500000       5.00000000       7.02500000       0.56996763      -0.03095422       1.28829249
Al       7.02500000       7.02500000       5.00000000       0.32261388       0.31980349      -0.76190925
Al       5.60572660       5.60491751       9.61605707      -0.01627384      -0.01367785       0.00416852
Al       5.30537853       7.30906553      12.15559984      -0.01821381      -0.01657551      -0.00428983
Al       7.33936434       5.21999662      12.13813171      -0.02109761      -0.01501246      -0.00909750
Al       7.57266733       7.45744573       9.61422397      -0.03067082      -0.01541856      -0.00655086
Al       5.00000000       5.00000000      14.66059691       1.00902547       0.98299733      -0.29121026
Al       5.00000000       7.02500000      17.13148174       0.29232836       0.47966154      -1.02414122
Al       7.02500000       5.00000000      17.13148174       0.48154034       0.29122328      -1.02739969
Al       7.02500000       7.02500000      14.66059691       0.50888170       0.46558749       0.06205348
Al       5.00000000       9.05000000       5.00000000      -0.17162330      -0.03892431      -0.38097901
Al       5.00000000      11.07500000       7.02500000      -0.24306763       0.03736143       1.61574878
Al       7.02500000       9.05000000       7.02500000       0.44173378       0.06051612       1.81581462
Al       7.02500000      11.07500000       5.00000000       0.32765372      -0.01501611      -0.81169542
Al       5.15883260       8.99042213       9.50851454       0.00009720       0.00544006       0.01742452
Al       5.08945502      11.09062224      12.07458842      -0.00654142      -0.01484931      -0.00004661
Al       7.26529700       9.28781458      12.09405551      -0.01037442      -0.00719667      -0.00013966
Al       6.99199681      11.21071912       9.52821604      -0.00490447       0.00305630       0.00282559
Al       5.00000000       9.05000000      14.66059691       0.21745645       0.14419577      -0.06041225
Al       5.00000000      11.07500000      17.13148174       0.17709794      -0.01858203      -0.92631592
Al       7.02500000       9.05000000      17.13148174       0.34458850      -0.04415296      -0.86652768
Al       7.02500000      11.07500000      14.66059691       0.32755466       0.05897850      -0.10905349
Al       5.00000000      13.10000000       5.00000000      -0.17953526      -0.00254976      -0.38171917
Al       5.00000000      15.12500000       7.02500000      -0.11759354      -0.01659841       1.40877825
Al       7.02500000      13.10000000       7.02500000       0.37040915       0.00319229       1.80655995
Al       7.02500000      15.12500000       5.00000000       0.32578195       0.00221498      -0.81171310
Al       5.02799011      13.26553051       9.55068894      -0.02081238      -0.01489033       0.00458228
Al       5.13213691      15.25554373      12.12479279      -0.01555070      -0.00530497      -0.00123831
Al       7.08295515      13.18416147      12.11417118      -0.00836161      -0.01780207      -0.00055197
Al       7.34539785      14.94067080       9.55876016       0.00066307      -0.01514033       0.00151707
Al       5.00000000      13.10000000      14.66059691       0.15543716       0.02208789      -0.24809589
Al       5.00000000      15.12500000      17.13148174       0.17500930       0.00175220      -0.92980473
Al       7.02500000      13.10000000      17.13148174       0.34427181      -0.00909146      -0.86594046
Al       7.02500000      15.12500000      14.66059691       0.44468996      -0.00228048      -0.10970211
Al       5.00000000      17.15000000       5.00000000      -0.17119338       0.01093820      -0.39104736
Al       5.00000000      19.17500000       7.02500000      -0.17593926      -0.21234116       1.36595057
Al       7.02500000      17.15000000       7.02500000       0.39796322      -0.08506823       1.63231322
Al       7.02500000      19.17500000       5.00000000       0.32354010       0.04073180      -0.79099390
Al       5.28518703      16.98263369       9.52164843      -0.01326235       0.00323979       0.00017051
Al       5.43281148      18.90727564      12.05177841      -0.04593834      -0.00444205      -0.01088960
Al       7.46921723      16.91896635      12.05866964      -0.02828537       0.01068369       0.00103163
Al       7.13152102      19.14248212       9.46784738      -0.02468126       0.00011061       0.01085872
Al       5.00000000      17.15000000      14.66059691       0.25700231       0.00548018      -0.08642211
Al       5.00000000      19.17500000      17.13148174       0.18809471       0.03567753      -0.91025509
Al       7.02500000      17.15000000      17.13148174       0.34183378       0.01087832      -0.85793457
Al       7.02500000      19.17500000      14.66059691       0.35735506       0.02337052       0.02767917
Al       5.00000000      21.20000000       5.00000000      -0.07505651      -0.44861037      -0.25556816
Al       5.00000000      23.22500000       7.02500000       0.49922819      -0.49922819       0.98829281
Al       7.02500000      21.20000000       7.02500000       0.39466750      -0.39466750       1.48360792
Al       7.02500000      23.22500000       5.00000000       0.44861037       0.07505651      -0.25556816
Al       5.12473536      21.02172517       9.41878942      -0.02171276       0.00554673       0.00381693
Al       6.68013154      21.54486846      12.07181466       0.02757983      -0.02757983      -0.00516938
Al       8.67154203      19.55345797      12.09128139       0.04654123      -0.04654123       0.00017873
Al       7.20327483      23.10026464       9.41878942      -0.00554673       0.02171276       0.00381693
Al       5.00000000      21.20000000      14.66059691       0.26006281      -0.68914214       0.09371555
Al       5.00000000      23.22500000      17.13148174       0.81462448      -0.81462448      -0.81405220
Al       7.02500000      21.20000000      17.13148174       0.33520908      -0.33520908      -0.90621043
Al       7.02500000      23.22500000      14.66059691       0.68914214      -0.26006281       0.09371555
Al       9.05000000       5.00000000       5.00000000      -0.03297797      -0.17510306      -0.36959194
Al       9.05000000       7.02500000       7.02500000       0.02238621       0.38375380       1.63087760
Al      11.07500000       5.00000000       7.02500000       0.00070834      -0.11194486       1.57280325
Al      11.07500000       7.02500000       5.00000000      -0.00771188       0.32576858      -0.81362559
Al       9.05764792       5.03761920       9.48734322       0.01773798       0.00688966       0.00718052
Al       9.20491299       7.28278221      12.18593943       0.00392288      -0.00124764      -0.01266036
Al      11.03110872       5.13464015      12.07021300       0.01392887      -0.00373038      -0.00227299
Al      10.87822949       7.27568916       9.56355174       0.02445589       0.00287448       0.00021100
Al       9.05000000       5.00000000      14.66059691       0.12881096       0.19998772       0.00083439
Al       9.05000000       7.02500000      17.13148174      -0.03791428       0.34311613      -0.87285390
Al      11.07500000       5.00000000      17.13148174      -0.01272334       0.18278804      -0.92767992
Al      11.07500000       7.02500000      14.66059691       0.02014213       0.39164227      -0.02649683
Al       9.05000000       9.05000000       5.00000000      -0.03295049      -0.03887915      -0.87828046
Al       9.05000000      11.07500000       7.02500000       0.02721587       0.05935641       1.60489952
Al      11.07500000       9.05000000       7.02500000       0.04689371       0.04383163       1.88083709
Al      11.07500000      11.07500000       5.00000000      -0.00652273      -0.01692454      -0.86753839
Al       9.22228644       9.56748523       9.59619159       0.00933018      -0.00939909      -0.00507333
Al       9.15101733      11.31568786      12.18572106       0.00397709      -0.01116880      -0.00957049
Al      11.11925747       9.30837208      12.11009397       0.00703344      -0.00773156      -0.00579501
Al      11.51387881      11.00628189       9.56155259       0.00780056      -0.01474207       0.00081934
Al       9.05000000       9.05000000      14.66059691       0.03740552       0.14485918       0.04614775
Al       9.05000000      11.07500000      17.13148174      -0.03930273      -0.01905948      -0.81705946
Al      11.07500000       9.05000000      17.13148174      -0.01072997      -0.04550857      -0.81544592
Al      11.07500000      11.07500000      14.66059691       0.12710162       0.03334104      -0.02168257
Al       9.05000000      13.10000000       5.00000000      -0.03595542      -0.00903455      -0.87342944
Al       9.05000000      15.12500000       7.02500000       0.01655681      -0.08374812       1.65748085
Al      11.07500000      13.10000000       7.02500000       0.01949250      -0.06530879       1.70545962
Al      11.07500000      15.12500000       5.00000000      -0.00961030      -0.00083744      -0.85343775
Al       9.32252870      12.87162448       9.55143841       0.01515267       0.00459391      -0.00145661
Al       9.41149294      14.87559518      12.08361044      -0.01319133       0.00791686       0.00722041
Al      11.46490870      12.92578674      12.07978080      -0.00627622       0.00532181       0.00295960
Al      10.98810977      15.20702649       9.47144744       0.01054515      -0.00923790       0.01115459
Al       9.05000000      13.10000000      14.66059691       0.05504288       0.06504856       0.04261714
Al       9.05000000      15.12500000      17.13148174      -0.04143057      -0.00114358      -0.80508188
Al      11.07500000      13.10000000      17.13148174      -0.01240665      -0.01171386      -0.81077919
Al      11.07500000      15.12500000      14.66059691       0.01329849       0.01128559      -0.03628289
Al       9.05000000      17.15000000       5.00000000      -0.03880391       0.01302631      -0.85322980
Al       9.05000000      19.17500000       7.02500000      -0.02566077       0.02566077       1.50931158
Al      11.07500000      17.15000000       7.02500000      -0.03296680       0.03296680       1.60803285
Al      11.07500000      19.17500000       5.00000000      -0.01302631       0.03880391      -0.85322980
Al       9.04478642      17.18974249       9.44641318       0.00130661      -0.00910888       0.01661419
Al      10.67718947      17.54781053      12.04588657       0.03086249      -0.03086249       0.00104918
Al      12.66740741      15.55759259      12.05153912       0.01340100      -0.01340100       0.00034840
Al      11.03525751      19.18021358       9.44641318       0.00910888      -0.00130661       0.01661419
Al       9.05000000      17.15000000      14.66059691       0.00508864       0.03027363      -0.01545923
Al       9.05000000      19.17500000      17.13148174      -0.04097448       0.04097448      -0.80248341
Al      11.07500000      17.15000000      17.13148174      -0.01217607       0.01217607      -0.80176972
Al      11.07500000      19.17500000      14.66059691      -0.03027363      -0.00508864      -0.01545923
Al       9.05000000      21.20000000       5.00000000      -0.04073180      -0.32354010      -0.79099390
Al       9.05000000      23.22500000       7.02500000       0.21234116       0.17593926       1.36595057
Al      11.07500000      21.20000000       7.02500000       0.08506823      -0.39796322       1.63231322
Al      11.07500000      23.22500000       5.00000000      -0.01093820       0.17119338      -0.39104736
Al       9.08251788      21.09347898       9.46784738      -0.00011061       0.02468126       0.01085872
Al       9.31772436      22.79218852      12.05177841       0.00444205       0.04593834      -0.01088960
Al      11.30603365      20.75578277      12.05866964      -0.01068369       0.02828537       0.00103163
Al      11.24236631      22.93981297       9.52164843      -0.00323979       0.01326235       0.00017051
Al       9.05000000      21.20000000      14.66059691      -0.02337052      -0.35735506       0.02767917
Al       9.05000000      23.22500000      17.13148174      -0.03567753      -0.18809471      -0.91025509
Al      11.07500000      21.20000000      17.13148174      -0.01087832      -0.34183378      -0.85793457
Al      11.07500000      23.22500000      14.66059691      -0.00548018      -0.25700231      -0.08642211
Al      13.10000000       5.00000000       5.00000000      -0.00189854      -0.15869053      -0.40346528
Al      13.10000000       7.02500000       7.02500000      -0.00135588       0.38716179       1.69360743
Al      15.12500000       5.00000000       7.02500000       0.05929097      -0.21214120       1.67830531
Al      15.12500000       7.02500000       5.00000000       0.00867035       0.32984493      -0.79910038
Al      13.01854681       5.34875434       9.56554861       0.00124311      -0.01951981       0.00869980
Al      13.01762060       7.23381987      12.15505903       0.00450034      -0.02060298      -0.00748340
Al      15.13624857       5.28846400      12.07660750      -0.00054846      -0.02135036      -0.00183550
Al      15.38943501       6.99085701       9.50927673       0.00197515      -0.01516921       0.00714420
Al      13.10000000       5.00000000      14.66059691      -0.01764530       0.21418755      -0.27530756
Al      13.10000000       7.02500000      17.13148174       0.00057200       0.34439251      -0.87226213
Al      15.12500000       5.00000000      17.13148174       0.00756051       0.18865796      -0.92301937
Al      15.12500000       7.02500000      14.66059691       0.06788783       0.39506554      -0.07304149
Al      13.10000000       9.05000000       5.00000000       0.00338630      -0.04134558      -0.86685346
Al      13.10000000      11.07500000       7.02500000       0.06394322      -0.05741065       1.54268952
Al      15.12500000       9.05000000       7.02500000      -0.03415488      -0.02764901       1.70379252
Al      15.12500000      11.07500000       5.00000000       0.00904606      -0.01731966      -0.84860763
Al      13.29111762       8.84021221       9.54881177       0.00978747      -0.00062045       0.00515719
Al      13.44616459      10.92318374      12.12053009      -0.01599054       0.00715239       0.00278957
Al      15.37087534       8.89786739      12.08870222      -0.00968731       0.01731953      -0.00169437
Al      14.95029737      11.21944800       9.46997248       0.01100977       0.00646272       0.01399419
Al      13.10000000       9.05000000      14.66059691       0.06238037       0.02271376      -0.04800258
Al      13.10000000      11.07500000      17.13148174       0.00032203      -0.02163351      -0.81450716
Al      15.12500000       9.05000000      17.13148174       0.00851393      -0.04652684      -0.81403483
Al      15.12500000      11.07500000      14.66059691       0.06225561       0.00776792       0.01219057
Al      13.10000000      13.10000000       5.00000000       0.00269393      -0.00892941      -0.84168705
Al      13.10000000      15.12500000       7.02500000      -0.12690703       0.12690703       1.52795476
Al      15.12500000      13.10000000       7.02500000      -0.07940733       0.07940733       1.63185684
Al      15.12500000      15.12500000       5.00000000       0.00892941      -0.00269393      -0.84168705
Al      13.01238190      13.28349686       9.45171264       0.01459036      -0.00737387       0.00835482
Al      14.66198495      13.56301505      12.03291748       0.02672528      -0.02672528       0.00916148
Al      14.94150314      15.21261810       9.45171264       0.00737387      -0.01459036       0.00835482
Al      13.10000000      13.10000000      14.66059691       0.03718330       0.01577977      -0.00804496
Al      13.10000000      15.12500000      17.13148174       0.00033061      -0.00033061      -0.80730935
Al      15.12500000      13.10000000      17.13148174       0.01014306      -0.01014306      -0.80967712
Al      15.12500000      15.12500000      14.66059691      -0.01577977      -0.03718330      -0.00804496
Al      13.10000000      17.15000000       5.00000000       0.00083744       0.00961030      -0.85343775
Al      13.10000000      19.17500000       7.02500000       0.08374812      -0.01655681       1.65748085
Al      15.12500000      17.15000000       7.02500000       0.06530879      -0.01949250       1.70545962
Al      15.12500000      19.17500000       5.00000000       0.00903455       0.03595542      -0.87342944
Al      13.01797351      17.23689023       9.47144744       0.00923790      -0.01054515       0.01115459
Al      13.34940482      18.81350706      12.08361044      -0.00791686       0.01319133       0.00722041
Al      15.29921326      16.76009130      12.07978080      -0.00532181       0.00627622       0.00295960
Al      15.35337552      18.90247130       9.55143841      -0.00459391      -0.01515267      -0.00145661
Al      13.10000000      17.15000000      14.66059691      -0.01128559      -0.01329849      -0.03628289
Al      13.10000000      19.17500000      17.13148174       0.00114358       0.04143057      -0.80508188
Al      15.12500000      17.15000000      17.13148174       0.01171386       0.01240665      -0.81077919
Al      15.12500000      19.17500000      14.66059691      -0.06504856      -0.05504288       0.04261714
Al      13.10000000      21.20000000       5.00000000      -0.00221498      -0.32578195      -0.81171310
Al      13.10000000      23.22500000       7.02500000       0.01659841       0.11759354       1.40877825
Al      15.12500000      21.20000000       7.02500000      -0.00319229      -0.37040915       1.80655995
Al      15.12500000      23.22500000       5.00000000       0.00254976       0.17953526      -0.38171917
Al      13.28432920      20.87960215       9.55876016       0.01514033      -0.00066307       0.00151707
Al      12.96945627      23.09286309      12.12479279       0.00530497       0.01555070      -0.00123831
Al      15.04083853      21.14204485      12.11417118       0.01780207       0.00836161      -0.00055197
Al      14.95946949      23.19700989       9.55068894       0.01489033       0.02081238       0.00458228
Al      13.10000000      21.20000000      14.66059691       0.00228048      -0.44468996      -0.10970211
Al      13.10000000      23.22500000      17.13148174      -0.00175220      -0.17500930      -0.92980473
Al      15.12500000      21.20000000      17.13148174       0.00909146      -0.34427181      -0.86594046
Al      15.12500000      23.22500000      14.66059691      -0.02208789      -0.15543716      -0.24809589
Al      17.15000000       5.00000000       5.00000000       0.02461723      -0.17224558      -0.37535195
Al      17.15000000       7.02500000       7.02500000       0.03447496       0.28899740       1.59767991
Al      19.17500000       5.00000000       7.02500000      -0.12747180      -0.13791791       1.20156157
Al      19.17500000       7.02500000       5.00000000       0.04135139       0.32820632      -0.78491670
Al      17.36654856       4.95309131       9.58113455      -0.00769665       0.00166502       0.00538614
Al      17.42376296       7.03393991      12.11143810      -0.02808180       0.00009650      -0.00144589
Al      19.37547334       5.02940750      12.14973041      -0.01003767       0.00969762       0.01069439
Al      18.94011300       7.29927977       9.46071142       0.01572369       0.00134266       0.00811482
Al      17.15000000       5.00000000      14.66059691       0.07072663       0.16842846      -0.27830710
Al      17.15000000       7.02500000      17.13148174       0.01738662       0.34503647      -0.87017356
Al      19.17500000       5.00000000      17.13148174       0.03897483       0.18749372      -0.94193025
Al      19.17500000       7.02500000      14.66059691       0.08161400       0.36500535       0.06963890
Al      17.15000000       9.05000000       5.00000000       0.01721783      -0.04037434      -0.84656829
Al      17.15000000      11.07500000       7.02500000      -0.13482355       0.13482355       1.58956608
Al      19.17500000       9.05000000       7.02500000      -0.14773895       0.14773895       1.51235851
Al      19.17500000      11.07500000       5.00000000       0.04037434      -0.01721783      -0.84656829
Al      16.96960310       9.27479434       9.47229815       0.00767431      -0.00204016       0.01979173
Al      16.63676225      11.58823775      12.02371280       0.02793295      -0.02793295       0.00607848
Al      18.58113962       9.64386038      12.02414964       0.01018028      -0.01018028       0.00686928
Al      18.95020566      11.25539690       9.47229815       0.00204016      -0.00767431       0.01979173
Al      17.15000000       9.05000000      14.66059691      -0.01185584       0.00295711      -0.01680496
Al      17.15000000      11.07500000      17.13148174       0.01987466      -0.01987466      -0.80633720
Al      19.17500000       9.05000000      17.13148174       0.04234960      -0.04234960      -0.80782983
Al      19.17500000      11.07500000      14.66059691      -0.00295711       0.01185584      -0.01680496
Al      17.15000000      13.10000000       5.00000000       0.01731966      -0.00904606      -0.84860763
Al      17.15000000      15.12500000       7.02500000       0.05741065      -0.06394322       1.54268952
Al      19.17500000      13.10000000       7.02500000       0.02764901       0.03415488       1.70379252
Al      19.17500000      15.12500000       5.00000000       0.04134558      -0.00338630      -0.86685346
Al      17.00555200      13.27470263       9.46997248      -0.00646272      -0.01100977       0.01399419
Al      17.30181626      14.77883541      12.12053009      -0.00715239       0.01599054       0.00278957
Al      19.32713261      12.85412466      12.08870222      -0.01731953       0.00968731      -0.00169437
Al      19.38478779      14.93388238       9.54881177       0.00062045      -0.00978747       0.00515719
Al      17.15000000      13.10000000      14.66059691      -0.00776792      -0.06225561       0.01219057
Al      17.15000000      15.12500000      17.13148174       0.02163351      -0.00032203      -0.81450716
Al      19.17500000      13.10000000      17.13148174       0.04652684      -0.00851393      -0.81403483
Al      19.17500000      15.12500000      14.66059691      -0.02271376      -0.06238037      -0.04800258
Al      17.15000000      17.15000000       5.00000000       0.01692454       0.00652273      -0.86753839
Al      17.15000000      19.17500000       7.02500000      -0.05935641      -0.02721587       1.60489952
Al      19.17500000      17.15000000       7.02500000      -0.04383163      -0.04689371       1.88083709
Al      19.17500000      19.17500000       5.00000000       0.03887915       0.03295049      -0.87828046
Al      17.21871811      16.71112119       9.56155259       0.01474207      -0.00780056       0.00081934
Al      16.90931214      19.07398267      12.18572106       0.01116880      -0.00397709      -0.00957049
Al      18.91662792      17.10574253      12.11009397       0.00773156      -0.00703344      -0.00579501
Al      18.65751477      19.00271356       9.59619159       0.00939909      -0.00933018      -0.00507333
Al      17.15000000      17.15000000      14.66059691      -0.03334104      -0.12710162      -0.02168257
Al      17.15000000      19.17500000      17.13148174       0.01905948       0.03930273      -0.81705946
Al      19.17500000      17.15000000      17.13148174       0.04550857       0.01072997      -0.81544592
Al      19.17500000      19.17500000      14.66059691      -0.14485918      -0.03740552       0.04614775
Al      17.15000000      21.20000000       5.00000000       0.01501611      -0.32765372      -0.81169542
Al      17.15000000      23.22500000       7.02500000      -0.03736143       0.24306763       1.61574878
Al      19.17500000      21.20000000       7.02500000      -0.06051612      -0.44173378       1.81581462
Al      19.17500000      23.22500000       5.00000000       0.03892431       0.17162330      -0.38097901
Al      17.01428088      21.23300319       9.52821604      -0.00305630       0.00490447       0.00282559
Al      17.13437776      23.13554498      12.07458842       0.01484931       0.00654142      -0.00004661
Al      18.93718542      20.95970300      12.09405551       0.00719667       0.01037442      -0.00013966
Al      19.23457787      23.06616740       9.50851454      -0.00544006      -0.00009720       0.01742452
Al      17.15000000      21.20000000      14.66059691      -0.05897850      -0.32755466      -0.10905349
Al      17.15000000      23.22500000      17.13148174       0.01858203      -0.17709794      -0.92631592
Al      19.17500000      21.20000000      17.13148174       0.04415296      -0.34458850      -0.86652768
Al      19.17500000      23.22500000      14.66059691      -0.14419577      -0.21745645      -0.06041225
Al      21.20000000       5.00000000       5.00000000      -0.45828150      -0.05919353      -0.27271489
Al      21.20000000       7.02500000       7.02500000      -0.52828744       0.52828744       1.49477185
Al      23.22500000       5.00000000       7.02500000      -0.58428930       0.58428930       1.20873411
Al      23.22500000       7.02500000       5.00000000       0.05919353       0.45828150      -0.27271489
Al      20.88178400       5.28409680       9.45938082       0.00721956       0.00431278       0.00658558
Al      20.53099802       7.69400198      12.00608808       0.02624794      -0.02624794       0.00474659
Al      22.46106627       5.76393373      12.02420651       0.01192196      -0.01192196       0.00806751
Al      22.94090320       7.34321600       9.45938082      -0.00431278      -0.00721956       0.00658558
Al      21.20000000       5.00000000      14.66059691      -0.52226919       0.32914827       0.23680697
Al      21.20000000       7.02500000      17.13148174      -0.34147504       0.34147504      -0.91135623
Al      23.22500000       5.00000000      17.13148174      -0.80988695       0.80988695      -0.88470680
Al      23.22500000       7.02500000      14.66059691      -0.32914827       0.52226919       0.23680697
Al      21.20000000       9.05000000       5.00000000      -0.32820632      -0.04135139      -0.78491670
Al      21.20000000      11.07500000       7.02500000      -0.28899740      -0.03447496       1.59767991
Al      23.22500000       9.05000000       7.02500000       0.13791791       0.12747180       1.20156157
Al      23.22500000      11.07500000       5.00000000       0.17224558      -0.02461723      -0.37535195
Al      20.92572023       9.28488700       9.46071142      -0.00134266      -0.01572369       0.00811482
Al      21.19106009      10.80123704      12.11143810      -0.00009650       0.02808180      -0.00144589
Al      23.19559250       8.84952666      12.14973041      -0.00969762       0.01003767       0.01069439
Al      23.27190869      10.85845144       9.58113455      -0.00166502       0.00769665       0.00538614
Al      21.20000000       9.05000000      14.66059691      -0.36500535      -0.08161400       0.06963890
Al      21.20000000      11.07500000      17.13148174      -0.34503647      -0.01738662      -0.87017356
Al      23.22500000       9.05000000      17.13148174      -0.18749372      -0.03897483      -0.94193025
Al      23.22500000      11.07500000      14.66059691      -0.16842846      -0.07072663      -0.27830710
Al      21.20000000      13.10000000       5.00000000      -0.32984493      -0.00867035      -0.79910038
Al      21.20000000      15.12500000       7.02500000      -0.38716179       0.00135588       1.69360743
Al      23.22500000      13.10000000       7.02500000       0.21214120      -0.05929097       1.67830531
Al      23.22500000      15.12500000       5.00000000       0.15869053       0.00189854      -0.40346528
Al      21.23414299      12.83556499       9.50927673       0.01516921      -0.00197515       0.00714420
Al      20.99118013      15.20737940      12.15505903       0.02060298      -0.00450034      -0.00748340
Al      22.93653600      13.08875143      12.07660750       0.02135036       0.00054846      -0.00183550
Al      22.87624566      15.20645319       9.56554861       0.01951981      -0.00124311       0.00869980
Al      21.20000000      13.10000000      14.66059691      -0.39506554      -0.06788783      -0.07304149
Al      21.20000000      15.12500000      17.13148174      -0.34439251      -0.00057200      -0.87226213
Al      23.22500000      13.10000000      17.13148174      -0.18865796      -0.00756051      -0.92301937
Al      23.22500000      15.12500000      14.66059691      -0.21418755       0.01764530      -0.27530756
Al      21.20000000      17.15000000       5.00000000      -0.32576858       0.00771188      -0.81362559
Al      21.20000000      19.17500000       7.02500000      -0.38375380      -0.02238621       1.63087760
Al      23.22500000      17.15000000       7.02500000       0.11194486      -0.00070834       1.57280325
Al      23.22500000      19.17500000       5.00000000       0.17510306       0.03297797      -0.36959194
Al      20.94931084      17.34677051       9.56355174      -0.00287448      -0.02445589       0.00021100
Al      20.94221779      19.02008701      12.18593943       0.00124764      -0.00392288      -0.01266036
Al      23.09035985      17.19389128      12.07021300       0.00373038      -0.01392887      -0.00227299
Al      23.18738080      19.16735208       9.48734322      -0.00688966      -0.01773798       0.00718052
Al      21.20000000      17.15000000      14.66059691      -0.39164227      -0.02014213      -0.02649683