299
Lattice="28.224999999999998 0.0 0.0 0.0 28.224999999999998 0.0 0.0 0.0 20.125" Properties=species:S:1:pos:R:3 energy=-16362.231243061628 pbc="T T T"
Al       5.00000000       5.00000000       5.00000000
Al       5.00000000       7.02500000       7.02500000
Al       7.02500000       5.00000000       7.02500000
Al       7.02500000       7.02500000       5.00000000
Al       6.97763171       6.83204872       9.24414217
Al       6.08056994       7.44697089      13.04048266
Al       7.86764056       5.22371575      12.22824842
Al       8.74598294       7.77527144      11.22365911
Al       5.00000000       5.00000000      15.75739206
Al       5.00000000       7.02500000      18.54164693
Al       7.02500000       5.00000000      18.54164693
Al       7.02500000       7.02500000      15.75739206
Al       5.00000000       9.05000000       5.00000000
Al       5.00000000      11.07500000       7.02500000
Al       7.02500000       9.05000000       7.02500000
Al       7.02500000      11.07500000       5.00000000
Al       6.02112642       9.11944987      10.50768705
Al       5.52463085      11.49899988      12.42326291
Al       7.70959024       9.77699773      13.25414766
Al       6.92875088      11.48338917       9.41996588
Al       5.00000000       9.05000000      15.75739206
Al       5.00000000      11.07500000      18.54164693
Al       7.02500000       9.05000000      18.54164693
Al       7.02500000      11.07500000      15.75739206
Al       5.00000000      13.10000000       5.00000000
Al       5.00000000      15.12500000       7.02500000
Al       7.02500000      13.10000000       7.02500000
Al       7.02500000      15.12500000       5.00000000
Al       5.73193505      13.95552135       9.71417347
Al       5.32546066      15.31290094      12.67191519
Al       7.31013358      13.34143623      13.48589547
Al       8.00973158      15.07578788      10.98018710
Al       5.00000000      13.10000000      15.75739206
Al       5.00000000      15.12500000      18.54164693
Al       7.02500000      13.10000000      18.54164693
Al       7.02500000      15.12500000      15.75739206
Al       5.00000000      17.15000000       5.00000000
Al       5.00000000      19.17500000       7.02500000
Al       7.02500000      17.15000000       7.02500000
Al       7.02500000      19.17500000       5.00000000
Al       5.89921270      16.88206368       9.78550008
Al       5.64088770      18.57249803      13.02761351
Al       7.67717885      16.63129029      13.46678876
Al       7.99592868      18.28889228      11.31117582
Al       5.00000000      17.15000000      15.75739206
Al       5.00000000      19.17500000      18.54164693
Al       7.02500000      17.15000000      18.54164693
Al       7.02500000      19.17500000      15.75739206
Al       5.00000000      21.20000000       5.00000000
Al       5.00000000      23.22500000       7.02500000
Al       7.02500000      21.20000000       7.02500000
Al       7.02500000      23.22500000       5.00000000
Al       6.42785256      19.80056162       9.54682527
Al       7.05607658      21.16892342      12.95996672
Al       8.94348152      19.28151847      13.80432290
Al       8.42443830      21.79714762       9.54682532
Al       5.00000000      21.20000000      15.75739206
Al       5.00000000      23.22500000      18.54164693
Al       7.02500000      21.20000000      18.54164693
Al       7.02500000      23.22500000      15.75739206
Al       9.05000000       5.00000000       5.00000000
Al       9.05000000       7.02500000       7.02500000
Al      11.07500000       5.00000000       7.02500000
Al      11.07500000       7.02500000       5.00000000
Al       9.40781814       5.29944939       9.44369369
Al       9.20142180       7.14433272      13.75517039
Al      11.06479034       5.81797840      12.00821432
Al      11.11802591       7.63619541       9.50378528
Al       9.05000000       5.00000000      15.75739206
Al       9.05000000       7.02500000      18.54164693
Al      11.07500000       5.00000000      18.54164693
Al      11.07500000       7.02500000      15.75739206
Al       9.05000000       9.05000000       5.00000000
Al       9.05000000      11.07500000       7.02500000
Al      11.07500000       9.05000000       7.02500000
Al      11.07500000      11.07500000       5.00000000
Al       8.85772650       9.43046124       9.20888479
Al       8.88945688      11.79932849      11.66144909
Al      10.74301954       9.61558633      12.68895999
Al      11.33956632      10.82370805       9.69415096
Al       9.05000000       9.05000000      15.75739206
Al       9.05000000      11.07500000      18.54164693
Al      11.07500000       9.05000000      18.54164693
Al      11.07500000      11.07500000      15.75739206
Al       9.05000000      13.10000000       5.00000000
Al       9.05000000      15.12500000       7.02500000
Al      11.07500000      13.10000000       7.02500000
Al      11.07500000      15.12500000       5.00000000
Al       9.29690079      13.15071312       9.20650319
Al       9.79576547      14.76783208      13.26438429
Al      11.56095047      12.82622222      12.22954801
Al      10.93732527      15.27076968      10.34425015
Al       9.05000000      13.10000000      15.75739206
Al       9.05000000      15.12500000      18.54164693
Al      11.07500000      13.10000000      18.54164693
Al      11.07500000      15.12500000      15.75739206
Al       9.05000000      17.15000000       5.00000000
Al       9.05000000      19.17500000       7.02500000
Al      11.07500000      17.15000000       7.02500000
Al      11.07500000      19.17500000       5.00000000
Al       9.06101442      17.09777863       9.14766352
Al      10.72840467      17.49659534      12.48295246
Al      12.77682698      15.44817302      13.29098643
Al      11.12722140      19.16398557       9.14766353
Al       9.05000000      17.15000000      15.75739206
Al       9.05000000      19.17500000      18.54164693
Al      11.07500000      17.15000000      18.54164693
Al      11.07500000      19.17500000      15.75739206
Al       9.05000000      21.20000000       5.00000000
Al       9.05000000      23.22500000       7.02500000
Al      11.07500000      21.20000000       7.02500000
Al      11.07500000      23.22500000       5.00000000
Al       9.93610758      20.22907129      11.31117575
Al       9.65250197      22.58411229      13.02761349
Al      11.59370968      20.54782112      13.46678870
Al      11.34293630      22.32578726       9.78550011
Al       9.05000000      21.20000000      15.75739206
Al       9.05000000      23.22500000      18.54164693
Al      11.07500000      21.20000000      18.54164693
Al      11.07500000      23.22500000      15.75739206
Al      13.10000000       5.00000000       5.00000000
Al      13.10000000       7.02500000       7.02500000
Al      15.12500000       5.00000000       7.02500000
Al      15.12500000       7.02500000       5.00000000
Al      12.93350301       5.45654505       9.56765311
Al      12.67888134       7.61451737      13.43489175
Al      14.66076831       6.01710800      12.17523829
Al      15.29209649       7.19430830       9.30422110
Al      13.10000000       5.00000000      15.75739206
Al      13.10000000       7.02500000      18.54164693
Al      15.12500000       5.00000000      18.54164693
Al      15.12500000       7.02500000      15.75739206
Al      13.10000000       9.05000000       5.00000000
Al      13.10000000      11.07500000       7.02500000
Al      15.12500000       9.05000000       7.02500000
Al      15.12500000      11.07500000       5.00000000
Al      13.42438797       8.80971671      10.80112805
Al      13.42270639      10.96675286      13.17292848
Al      15.34447349       8.92740677      13.34109400
Al      14.74633881      11.25900649       9.67018448
Al      13.10000000       9.05000000      15.75739206
Al      13.10000000      11.07500000      18.54164693
Al      15.12500000       9.05000000      18.54164693
Al      15.12500000      11.07500000      15.75739206
Al      13.10000000      13.10000000       5.00000000
Al      13.10000000      15.12500000       7.02500000
Al      15.12500000      13.10000000       7.02500000
Al      15.12500000      15.12500000       5.00000000
Al      12.79262992      13.34267259       9.36494373
Al      14.54156332      13.68343668      11.88667072
Al      14.88232742      15.43237008       9.36494373
Al      13.10000000      13.10000000      15.75739206
Al      13.10000000      15.12500000      18.54164693
Al      15.12500000      13.10000000      18.54164693
Al      15.12500000      15.12500000      15.75739206
Al      13.10000000      17.15000000       5.00000000
Al      13.10000000      19.17500000       7.02500000
Al      15.12500000      17.15000000       7.02500000
Al      15.12500000      19.17500000       5.00000000
Al      12.95423033      17.28767472      10.34425016
Al      13.45716794      18.42923452      13.26438429
Al      15.39877778      16.66404953      12.22954801
Al      15.07428689      18.92809921       9.20650319
Al      13.10000000      17.15000000      15.75739206
Al      13.10000000      19.17500000      18.54164693
Al      15.12500000      17.15000000      18.54164693
Al      15.12500000      19.17500000      15.75739206
Al      13.10000000      21.20000000       5.00000000
Al      13.10000000      23.22500000       7.02500000
Al      15.12500000      21.20000000       7.02500000
Al      15.12500000      23.22500000       5.00000000
Al      13.14921214      20.21526842      10.98018710
Al      12.91209907      22.89953933      12.67191522
Al      14.88356378      20.91486641      13.48589547
Al      14.26947863      22.49306495       9.71417348
Al      13.10000000      21.20000000      15.75739206
Al      13.10000000      23.22500000      18.54164693
Al      15.12500000      21.20000000      18.54164693
Al      15.12500000      23.22500000      15.75739206
Al      17.15000000       5.00000000       5.00000000
Al      17.15000000       7.02500000       7.02500000
Al      19.17500000       5.00000000       7.02500000
Al      19.17500000       7.02500000       5.00000000
Al      17.26523330       5.16016869       9.88894747
Al      17.34915631       7.11907884      12.45750662
Al      19.31009890       5.26739690      13.17275374
Al      18.62594548       7.56363448       9.42183795
Al      17.15000000       5.00000000      15.75739206
Al      17.15000000       7.02500000      18.54164693
Al      19.17500000       5.00000000      18.54164693
Al      19.17500000       7.02500000      15.75739206
Al      17.15000000       9.05000000       5.00000000
Al      17.15000000      11.07500000       7.02500000
Al      19.17500000       9.05000000       7.02500000
Al      19.17500000      11.07500000       5.00000000
Al      16.74681982       9.41547384      10.57242322
Al      16.48533263      11.73966738      12.81749569
Al      18.50472583       9.72027417      13.32733228
Al      18.80952615      11.47818016      10.57242321
Al      17.15000000       9.05000000      15.75739206
Al      17.15000000      11.07500000      18.54164693
Al      19.17500000       9.05000000      18.54164693
Al      19.17500000      11.07500000      15.75739206
Al      17.15000000      13.10000000       5.00000000
Al      17.15000000      15.12500000       7.02500000
Al      19.17500000      13.10000000       7.02500000
Al      19.17500000      15.12500000       5.00000000
Al      16.96599351      13.47866119       9.67018449
Al      17.25824714      14.80229360      13.17292848
Al      19.29759323      12.88052651      13.34109399
Al      19.41528329      14.80061203      10.80112805
Al      17.15000000      13.10000000      15.75739206
Al      17.15000000      15.12500000      18.54164693
Al      19.17500000      13.10000000      18.54164693
Al      19.17500000      15.12500000      15.75739206
Al      17.15000000      17.15000000       5.00000000
Al      17.15000000      19.17500000       7.02500000
Al      19.17500000      17.15000000       7.02500000
Al      19.17500000      19.17500000       5.00000000
Al      17.40129195      16.88543367       9.69415096
Al      16.42567151      19.33554311      11.66144909
Al      18.60941367      17.48198046      12.68896000
Al      18.79453876      19.36727350       9.20888479
Al      17.15000000      17.15000000      15.75739206
Al      17.15000000      19.17500000      18.54164693
Al      19.17500000      17.15000000      18.54164693
Al      19.17500000      19.17500000      15.75739206
Al      17.15000000      21.20000000       5.00000000
Al      17.15000000      23.22500000       7.02500000
Al      19.17500000      21.20000000       7.02500000
Al      19.17500000      23.22500000       5.00000000
Al      16.74161082      21.29624912       9.41996589
Al      16.72600011      22.70036916      12.42326291
Al      18.44800227      20.51540977      13.25414766
Al      19.10555013      22.20387357      10.50768705
Al      17.15000000      21.20000000      15.75739206
Al      17.15000000      23.22500000      18.54164693
Al      19.17500000      21.20000000      18.54164693
Al      19.17500000      23.22500000      15.75739206
Al      21.20000000       5.00000000       5.00000000
Al      21.20000000       7.02500000       7.02500000
Al      23.22500000       5.00000000       7.02500000
Al      23.22500000       7.02500000       5.00000000
Al      20.56912204       5.57378733       9.89528273
Al      20.24715958       7.97784042      11.93352843
Al      22.12850195       6.09649805      13.00196388
Al      22.65121268       7.65587796       9.89528273
Al      21.20000000       5.00000000      15.75739206
Al      21.20000000       7.02500000      18.54164693
Al      23.22500000       5.00000000      18.54164693
Al      23.22500000       7.02500000      15.75739206
Al      21.20000000       9.05000000       5.00000000
Al      21.20000000      11.07500000       7.02500000
Al      23.22500000       9.05000000       7.02500000
Al      23.22500000      11.07500000       5.00000000
Al      20.66136553       9.59905451       9.42183795
Al      21.10592116      10.87584369      12.45750660
Al      22.95760309       8.91490111      13.17275374
Al      23.06483131      10.95976670       9.88894746
Al      21.20000000       9.05000000      15.75739206
Al      21.20000000      11.07500000      18.54164693
Al      23.22500000       9.05000000      18.54164693
Al      23.22500000      11.07500000      15.75739206
Al      21.20000000      13.10000000       5.00000000
Al      21.20000000      15.12500000       7.02500000
Al      23.22500000      13.10000000       7.02500000
Al      23.22500000      15.12500000       5.00000000
Al      21.03069170      12.93290351       9.30422111
Al      20.61048263      15.54611866      13.43489175
Al      22.20789200      13.56423169      12.17523829
Al      22.76845495      15.29149699       9.56765311
Al      21.20000000      13.10000000      15.75739206
Al      21.20000000      15.12500000      18.54164693
Al      23.22500000      13.10000000      18.54164693
Al      23.22500000      15.12500000      15.75739206
Al      21.20000000      17.15000000       5.00000000
Al      21.20000000      19.17500000       7.02500000
Al      23.22500000      17.15000000       7.02500000
Al      23.22500000      19.17500000       5.00000000
Al      20.58880459      17.10697409       9.50378528
Al      21.08066728      19.02357820      13.75517039
Al      22.40702160      17.16020966      12.00821432
Al      22.92555061      18.81718186       9.44369369
Al      21.20000000      17.15000000      15.75739206
Al      21.20000000      19.17500000      18.54164693
Al      23.22500000      17.15000000      18.54164693
Al      23.22500000      19.17500000      15.75739206
Al      21.20000000      21.20000000       5.00000000
Al      21.20000000      23.22500000       7.02500000
Al      23.22500000      21.20000000       7.02500000
Al      23.22500000      23.22500000       5.00000000
Al      20.44972856      19.47901705      11.22365911
Al      20.77802911      22.14443006      13.04048266
Al      23.00128425      20.35735944      12.22824842
Al      21.39295128      21.24736829       9.24414218
Al      21.20000000      21.20000000      15.75739206
Al      21.20000000      23.22500000      18.54164693
Al      23.22500000      21.20000000      18.54164693
Al      23.22500000      23.22500000      15.75739206
