299
Lattice="28.224999999999998 0.0 0.0 0.0 28.224999999999998 0.0 0.0 0.0 20.125" Properties=species:S:1:pos:R:3 energy=-16378.989986200333 pbc="T T T"
Al       5.00000000       5.00000000       5.00000000
Al       5.00000000       7.02500000       7.02500000
Al       7.02500000       5.00000000       7.02500000
Al       7.02500000       7.02500000       5.00000000
Al       5.95426874       5.92396430       9.73873444
Al       5.59245811       7.53061517      12.62517585
Al       7.61475879       5.41459350      12.51992058
Al       8.04812928       7.55570100      10.17261961
Al       5.00000000       5.00000000      15.37714973
Al       5.00000000       7.02500000      18.05276394
Al       7.02500000       5.00000000      18.05276394
Al       7.02500000       7.02500000      15.37714973
Al       5.00000000       9.05000000       5.00000000
Al       5.00000000      11.07500000       7.02500000
Al       7.02500000       9.05000000       7.02500000
Al       7.02500000      11.07500000       5.00000000
Al       5.67004720       9.13322464       9.76138565
Al       5.47824219      11.11399579      12.58168458
Al       7.69909021       9.34485010      12.58265325
Al       7.07676809      11.67361922       9.83460413
Al       5.00000000       9.05000000      15.37714973
Al       5.00000000      11.07500000      18.05276394
Al       7.02500000       9.05000000      18.05276394
Al       7.02500000      11.07500000      15.37714973
Al       5.00000000      13.10000000       5.00000000
Al       5.00000000      15.12500000       7.02500000
Al       7.02500000      13.10000000       7.02500000
Al       7.02500000      15.12500000       5.00000000
Al       5.08143452      13.65682614       9.92274519
Al       5.00086005      15.62333530      12.72087940
Al       6.93925225      13.63672047      12.68464554
Al       7.77677745      14.69403584       9.84832637
Al       5.00000000      13.10000000      15.37714973
Al       5.00000000      15.12500000      18.05276394
Al       7.02500000      13.10000000      18.05276394
Al       7.02500000      15.12500000      15.37714973
Al       5.00000000      17.15000000       5.00000000
Al       5.00000000      19.17500000       7.02500000
Al       7.02500000      17.15000000       7.02500000
Al       7.02500000      19.17500000       5.00000000
Al       5.68700531      16.75144748       9.80550268
Al       5.62922121      18.80340110      12.54464862
Al       7.66752157      16.76718703      12.47140255
Al       7.04353083      19.25264037       9.68552147
Al       5.00000000      17.15000000      15.37714973
Al       5.00000000      19.17500000      18.05276394
Al       7.02500000      17.15000000      18.05276394
Al       7.02500000      19.17500000      15.37714973
Al       5.00000000      21.20000000       5.00000000
Al       5.00000000      23.22500000       7.02500000
Al       7.02500000      21.20000000       7.02500000
Al       7.02500000      23.22500000       5.00000000
Al       5.06214340      21.11782461       9.43820895
Al       6.63181451      21.59318549      12.36494698
Al       8.65389900      19.57110100      12.57802382
Al       7.10717539      23.16285660       9.43820895
Al       5.00000000      21.20000000      15.37714973
Al       5.00000000      23.22500000      18.05276394
Al       7.02500000      21.20000000      18.05276394
Al       7.02500000      23.22500000      15.37714973
Al       9.05000000       5.00000000       5.00000000
Al       9.05000000       7.02500000       7.02500000
Al      11.07500000       5.00000000       7.02500000
Al      11.07500000       7.02500000       5.00000000
Al       9.43799262       5.18730439       9.67317316
Al       9.58255430       7.33141238      12.85192279
Al      11.29244278       5.15070626      12.54578782
Al      11.00516909       7.68130227       9.91502329
Al       9.05000000       5.00000000      15.37714973
Al       9.05000000       7.02500000      18.05276394
Al      11.07500000       5.00000000      18.05276394
Al      11.07500000       7.02500000      15.37714973
Al       9.05000000       9.05000000       5.00000000
Al       9.05000000      11.07500000       7.02500000
Al      11.07500000       9.05000000       7.02500000
Al      11.07500000      11.07500000       5.00000000
Al       9.19692581       9.91436071       9.74120676
Al       8.95547688      11.79155556      12.63272988
Al      10.88877353       9.77552692      12.52501323
Al      11.88687355      10.71913638       9.78290845
Al       9.05000000       9.05000000      15.37714973
Al       9.05000000      11.07500000      18.05276394
Al      11.07500000       9.05000000      18.05276394
Al      11.07500000      11.07500000      15.37714973
Al       9.05000000      13.10000000       5.00000000
Al       9.05000000      15.12500000       7.02500000
Al      11.07500000      13.10000000       7.02500000
Al      11.07500000      15.12500000       5.00000000
Al       9.83101309      12.72603463       9.81937880
Al       9.65881828      14.76194787      12.60369151
Al      11.67988845      12.77501685      12.49594724
Al      10.91588101      15.33474851       9.71501229
Al       9.05000000      13.10000000      15.37714973
Al       9.05000000      15.12500000      18.05276394
Al      11.07500000      13.10000000      18.05276394
Al      11.07500000      15.12500000      15.37714973
Al       9.05000000      17.15000000       5.00000000
Al       9.05000000      19.17500000       7.02500000
Al      11.07500000      17.15000000       7.02500000
Al      11.07500000      19.17500000       5.00000000
Al       8.93670833      17.28747804       9.57183792
Al      10.66351770      17.56148230      12.34611551
Al      12.66870358      15.55629642      12.53445004
Al      10.93752196      19.28829167       9.57183792
Al       9.05000000      17.15000000      15.37714973
Al       9.05000000      19.17500000      18.05276394
Al      11.07500000      17.15000000      18.05276394
Al      11.07500000      19.17500000      15.37714973
Al       9.05000000      21.20000000       5.00000000
Al       9.05000000      23.22500000       7.02500000
Al      11.07500000      21.20000000       7.02500000
Al      11.07500000      23.22500000       5.00000000
Al       8.97235963      21.18146917       9.68552147
Al       9.42159890      22.59577879      12.54464862
Al      11.45781297      20.55747843      12.47140255
Al      11.47355252      22.53799469       9.80550268
Al       9.05000000      21.20000000      15.37714973
Al       9.05000000      23.22500000      18.05276394
Al      11.07500000      21.20000000      18.05276394
Al      11.07500000      23.22500000      15.37714973
Al      13.10000000       5.00000000       5.00000000
Al      13.10000000       7.02500000       7.02500000
Al      15.12500000       5.00000000       7.02500000
Al      15.12500000       7.02500000       5.00000000
Al      12.97232947       5.59625849       9.77938397
Al      12.78930870       7.63662054      12.68915472
Al      14.91124477       5.66262227      12.51733883
Al      15.71464939       6.75051793       9.62815863
Al      13.10000000       5.00000000      15.37714973
Al      13.10000000       7.02500000      18.05276394
Al      15.12500000       5.00000000      18.05276394
Al      15.12500000       7.02500000      15.37714973
Al      13.10000000       9.05000000       5.00000000
Al      13.10000000      11.07500000       7.02500000
Al      15.12500000       9.05000000       7.02500000
Al      15.12500000      11.07500000       5.00000000
Al      13.75540747       8.65903393       9.89848904
Al      13.61726188      10.76272764      12.61995213
Al      15.52329668       8.76757653      12.65025837
Al      14.88049007      11.34454039       9.69815369
Al      13.10000000       9.05000000      15.37714973
Al      13.10000000      11.07500000      18.05276394
Al      15.12500000       9.05000000      18.05276394
Al      15.12500000      11.07500000      15.37714973
Al      13.10000000      13.10000000       5.00000000
Al      13.10000000      15.12500000       7.02500000
Al      15.12500000      13.10000000       7.02500000
Al      15.12500000      15.12500000       5.00000000
Al      12.90423095      13.35630582       9.61456844
Al      14.66349611      13.56150389      12.34676466
Al      14.86869418      15.32076905       9.61456844
Al      13.10000000      13.10000000      15.37714973
Al      13.10000000      15.12500000      18.05276394
Al      15.12500000      13.10000000      18.05276394
Al      15.12500000      15.12500000      15.37714973
Al      13.10000000      17.15000000       5.00000000
Al      13.10000000      19.17500000       7.02500000
Al      15.12500000      17.15000000       7.02500000
Al      15.12500000      19.17500000       5.00000000
Al      12.89025149      17.30911899       9.71501229
Al      13.46305213      18.56618172      12.60369151
Al      15.44998315      16.54511155      12.49594724
Al      15.49896537      18.39398691       9.81937880
Al      13.10000000      17.15000000      15.37714973
Al      13.10000000      19.17500000      18.05276394
Al      15.12500000      17.15000000      18.05276394
Al      15.12500000      19.17500000      15.37714973
Al      13.10000000      21.20000000       5.00000000
Al      13.10000000      23.22500000       7.02500000
Al      15.12500000      21.20000000       7.02500000
Al      15.12500000      23.22500000       5.00000000
Al      13.53096416      20.44822255       9.84832637
Al      12.60166470      23.22413995      12.72087940
Al      14.58827953      21.28574775      12.68464554
Al      14.56817386      23.14356548       9.92274519
Al      13.10000000      21.20000000      15.37714973
Al      13.10000000      23.22500000      18.05276394
Al      15.12500000      21.20000000      18.05276394
Al      15.12500000      23.22500000      15.37714973
Al      17.15000000       5.00000000       5.00000000
Al      17.15000000       7.02500000       7.02500000
Al      19.17500000       5.00000000       7.02500000
Al      19.17500000       7.02500000       5.00000000
Al      17.74002511       4.86980662      10.07389440
Al      17.56552134       6.93620694      12.54117196
Al      19.52055491       5.00954050      12.81800014
Al      18.83083399       7.43345636       9.58506829
Al      17.15000000       5.00000000      15.37714973
Al      17.15000000       7.02500000      18.05276394
Al      19.17500000       5.00000000      18.05276394
Al      19.17500000       7.02500000      15.37714973
Al      17.15000000       9.05000000       5.00000000
Al      17.15000000      11.07500000       7.02500000
Al      19.17500000       9.05000000       7.02500000
Al      19.17500000      11.07500000       5.00000000
Al      16.85610971       9.37517284       9.80832656
Al      16.63166892      11.59333108      12.48144159
Al      18.56832295       9.65667705      12.56099450
Al      18.84982716      11.36889029       9.80832656
Al      17.15000000       9.05000000      15.37714973
Al      17.15000000      11.07500000      18.05276394
Al      19.17500000       9.05000000      18.05276394
Al      19.17500000      11.07500000      15.37714973
Al      17.15000000      13.10000000       5.00000000
Al      17.15000000      15.12500000       7.02500000
Al      19.17500000      13.10000000       7.02500000
Al      19.17500000      15.12500000       5.00000000
Al      16.88045961      13.34450993       9.69815369
Al      17.46227236      14.60773812      12.61995213
Al      19.45742347      12.70170332      12.65025837
Al      19.56596607      14.46959253       9.89848904
Al      17.15000000      13.10000000      15.37714973
Al      17.15000000      15.12500000      18.05276394
Al      19.17500000      13.10000000      18.05276394
Al      19.17500000      15.12500000      15.37714973
Al      17.15000000      17.15000000       5.00000000
Al      17.15000000      19.17500000       7.02500000
Al      19.17500000      17.15000000       7.02500000
Al      19.17500000      19.17500000       5.00000000
Al      17.50586362      16.33812645       9.78290845
Al      16.43344444      19.26952312      12.63272988
Al      18.44947308      17.33622647      12.52501323
Al      18.31063929      19.02807419       9.74120676
Al      17.15000000      17.15000000      15.37714973
Al      17.15000000      19.17500000      18.05276394
Al      19.17500000      17.15000000      18.05276394
Al      19.17500000      19.17500000      15.37714973
Al      17.15000000      21.20000000       5.00000000
Al      17.15000000      23.22500000       7.02500000
Al      19.17500000      21.20000000       7.02500000
Al      19.17500000      23.22500000       5.00000000
Al      16.55138078      21.14823191       9.83460413
Al      17.11100421      22.74675781      12.58168458
Al      18.88014990      20.52590979      12.58265325
Al      19.09177536      22.55495280       9.76138565
Al      17.15000000      21.20000000      15.37714973
Al      17.15000000      23.22500000      18.05276394
Al      19.17500000      21.20000000      18.05276394
Al      19.17500000      23.22500000      15.37714973
Al      21.20000000       5.00000000       5.00000000
Al      21.20000000       7.02500000       7.02500000
Al      23.22500000       5.00000000       7.02500000
Al      23.22500000       7.02500000       5.00000000
Al      20.78344219       5.41511359       9.78383063
Al      20.49351016       7.73148984      12.21494304
Al      22.42507732       5.79992268      12.59891427
Al      22.80988641       7.44155781       9.78383063
Al      21.20000000       5.00000000      15.37714973
Al      21.20000000       7.02500000      18.05276394
Al      23.22500000       5.00000000      18.05276394
Al      23.22500000       7.02500000      15.37714973
Al      21.20000000       9.05000000       5.00000000
Al      21.20000000      11.07500000       7.02500000
Al      23.22500000       9.05000000       7.02500000
Al      23.22500000      11.07500000       5.00000000
Al      20.79154364       9.39416601       9.58506829
Al      21.28879306      10.65947866      12.54117196
Al      23.21545950       8.70444509      12.81800014
Al      23.35519338      10.48497489      10.07389440
Al      21.20000000       9.05000000      15.37714973
Al      21.20000000      11.07500000      18.05276394
Al      23.22500000       9.05000000      18.05276394
Al      23.22500000      11.07500000      15.37714973
Al      21.20000000      13.10000000       5.00000000
Al      21.20000000      15.12500000       7.02500000
Al      23.22500000      13.10000000       7.02500000
Al      23.22500000      15.12500000       5.00000000
Al      21.47448207      12.51035061       9.62815863
Al      20.58837946      15.43569130      12.68915472
Al      22.56237773      13.31375523      12.51733883
Al      22.62874151      15.25267053       9.77938397
Al      21.20000000      13.10000000      15.37714973
Al      21.20000000      15.12500000      18.05276394
Al      23.22500000      13.10000000      18.05276394
Al      23.22500000      15.12500000      15.37714973
Al      21.20000000      17.15000000       5.00000000
Al      21.20000000      19.17500000       7.02500000
Al      23.22500000      17.15000000       7.02500000
Al      23.22500000      19.17500000       5.00000000
Al      20.54369773      17.21983091       9.91502329
Al      20.89358762      18.64244570      12.85192279
Al      23.07429374      16.93255722      12.54578782
Al      23.03769561      18.78700738       9.67317316
Al      21.20000000      17.15000000      15.37714973
Al      21.20000000      19.17500000      18.05276394
Al      23.22500000      17.15000000      18.05276394
Al      23.22500000      19.17500000      15.37714973
Al      21.20000000      21.20000000       5.00000000
Al      21.20000000      23.22500000       7.02500000
Al      23.22500000      21.20000000       7.02500000
Al      23.22500000      23.22500000       5.00000000
Al      20.66929900      20.17687072      10.17261961
Al      20.69438483      22.63254189      12.62517585
Al      22.81040650      20.61024121      12.51992058
Al      22.30103570      22.27073126       9.73873444
Al      21.20000000      21.20000000      15.37714973
Al      21.20000000      23.22500000      18.05276394
Al      23.22500000      21.20000000      18.05276394
Al      23.22500000      23.22500000      15.37714973
