299
Lattice="28.224999999999998 0.0 0.0 0.0 28.224999999999998 0.0 0.0 0.0 20.125" Properties=species:S:1:pos:R:3:forces:R:3 energy=-16469.067143185093 pbc="T T T"
Al       5.00000000       5.00000000       5.00000000       0.32122145       0.32042695       0.32852614
Al       5.00000000       7.02500000       7.02500000      -0.49579006       0.23685433       0.40404411
Al       7.02500000       5.00000000       7.02500000       0.23327893      -0.49228435       0.40450147
Al       7.02500000       7.02500000       5.00000000       0.33088568       0.33001284      -0.57478933
Al       4.97635825       4.97716806       9.06635066      -0.01428358      -0.01372489      -0.01604570
Al       4.87569383       7.05372698      11.07778745       0.02509848      -0.01166995       0.01874186
Al       7.05107184       4.87284430      11.07760959      -0.01494075       0.01145385       0.01988392
Al       7.02682470       7.02815850       9.08543197       0.02047066       0.01679228      -0.03386721
Al       5.00000000       5.00000000      13.10000000      -0.04797243      -0.04408912      -0.54767885
Al       5.00000000       7.02500000      15.12500000      -0.10350034       0.45742555       0.07667829
Al       7.02500000       5.00000000      15.12500000       0.45909764      -0.10410126       0.07521828
Al       7.02500000       7.02500000      13.10000000       0.15457811       0.16165499      -0.69643631
Al       5.00000000       9.05000000       5.00000000      -0.20658889      -0.03095328      -0.16533488
Al       5.00000000      11.07500000       7.02500000      -0.60471856       0.00262278       0.24253361
Al       7.02500000       9.05000000       7.02500000       0.09781116      -0.04511752       0.56717635
Al       7.02500000      11.07500000       5.00000000       0.34010091      -0.01313898      -0.62594229
Al       4.82263209       9.05009869       9.02608684       0.01267417      -0.01722100       0.00844447
Al       4.80883761      11.06607755      11.08790989      -0.01605924       0.00608430       0.00499774
Al       7.00059057       9.06477491      11.05561475       0.03117952      -0.00612860       0.02145221
Al       6.98111415      11.08006335       9.06859641       0.02183893      -0.00596034      -0.00713837
Al       5.00000000       9.05000000      13.10000000      -0.58514853      -0.01519130      -0.23055652
Al       5.00000000      11.07500000      15.12500000      -0.20850338      -0.01243591       0.16808729
Al       7.02500000       9.05000000      15.12500000       0.34214536      -0.03150030       0.62740071
Al       7.02500000      11.07500000      13.10000000       0.08996399       0.00731037      -0.54345109
Al       5.00000000      13.10000000       5.00000000      -0.21380947      -0.00375618      -0.16526633
Al       5.00000000      15.12500000       7.02500000      -0.62442908       0.00923303       0.26284890
Al       7.02500000      13.10000000       7.02500000       0.09428099       0.00046551       0.57346738
Al       7.02500000      15.12500000       5.00000000       0.34002813       0.00557039      -0.62351814
Al       4.81086039      13.09648149       9.03558483      -0.03392318       0.00651063      -0.01303758
Al       4.81372456      15.12646301      11.08804842      -0.03451005      -0.00124295       0.00775568
Al       6.96454938      13.09428549      11.05234249       0.01287805       0.01090485       0.02028788
Al       6.96754092      15.12634437       9.06727951       0.00556124      -0.00089123      -0.00840312
Al       5.00000000      13.10000000      13.10000000      -0.61871705      -0.01204520      -0.26569122
Al       5.00000000      15.12500000      15.12500000      -0.20974031       0.00343400       0.16635401
Al       7.02500000      13.10000000      15.12500000       0.34788396      -0.00352886       0.62339942
Al       7.02500000      15.12500000      13.10000000       0.02232229      -0.00273037      -0.50368284
Al       5.00000000      17.15000000       5.00000000      -0.21164807       0.01266021      -0.16644971
Al       5.00000000      19.17500000       7.02500000      -0.58591739       0.01651962       0.23699153
Al       7.02500000      17.15000000       7.02500000       0.09610208      -0.00097858       0.56061149
Al       7.02500000      19.17500000       5.00000000       0.33815027       0.03295784      -0.62630873
Al       4.80925159      17.15754432       9.03571162      -0.01869089      -0.00006842      -0.00724782
Al       4.81715924      19.17747683      11.09863247       0.01041588       0.02055674      -0.01031562
Al       6.96701135      17.15411174      11.05458808       0.03023782       0.00407205       0.01026483
Al       7.00013022      19.16320523       9.06987214       0.02568718       0.01034498      -0.01879959
Al       5.00000000      17.15000000      13.10000000      -0.62018917      -0.00531148      -0.23225021
Al       5.00000000      19.17500000      15.12500000      -0.20484377       0.03036258       0.16493979
Al       7.02500000      17.15000000      15.12500000       0.34649960       0.01025298       0.62451250
Al       7.02500000      19.17500000      13.10000000       0.11615917       0.04898805      -0.57789654
Al       5.00000000      21.20000000       5.00000000      -0.10523149      -0.45726815      -0.07614121
Al       5.00000000      23.22500000       7.02500000      -0.04599445       0.04599445       0.55218979
Al       7.02500000      21.20000000       7.02500000       0.16319099      -0.16319099       0.70280349
Al       7.02500000      23.22500000       5.00000000       0.45726815       0.10523149      -0.07614121
Al       4.87659907      21.17175128       9.04782221       0.02649681       0.01232559      -0.01945486
Al       4.97809665      23.24690335      11.05902268      -0.00577597       0.00577597       0.01280819
Al       7.03488804      21.19011196      11.03964899       0.01374999      -0.01374999       0.03822399
Al       7.05324872      23.34840093       9.04782221      -0.01232559      -0.02649681      -0.01945486
Al       5.00000000      21.20000000      13.10000000      -0.48287042      -0.23663137      -0.40884146
Al       5.00000000      23.22500000      15.12500000       0.32083090      -0.32083090      -0.32832784
Al       7.02500000      21.20000000      15.12500000       0.33271462      -0.33271462       0.57414328
Al       7.02500000      23.22500000      13.10000000       0.23663137       0.48287042      -0.40884146
Al       9.05000000       5.00000000       5.00000000      -0.02993992      -0.20659605      -0.16388291
Al       9.05000000       7.02500000       7.02500000      -0.05807958       0.09758576       0.56399751
Al      11.07500000       5.00000000       7.02500000       0.00451882      -0.62473848       0.22825285
Al      11.07500000       7.02500000       5.00000000      -0.01271002       0.33909470      -0.62554160
Al       9.04823489       4.81950399       9.02529387      -0.02279568      -0.00202639       0.01052226
Al       9.05315017       6.98834322      11.05471140       0.00081783       0.03912842       0.02070984
Al      11.06815692       4.81124342      11.08791777       0.00225973      -0.01896477       0.00854686
Al      11.07239892       6.96987501       9.06630368      -0.00497849       0.03098653       0.00250447
Al       9.05000000       5.00000000      13.10000000      -0.01393321      -0.60071669      -0.22469196
Al       9.05000000       7.02500000      15.12500000      -0.02993248       0.33995698       0.62678321
Al      11.07500000       5.00000000      15.12500000      -0.01074737      -0.20752719       0.16657946
Al      11.07500000       7.02500000      13.10000000       0.00347030       0.05527313      -0.52241710
Al       9.05000000       9.05000000       5.00000000      -0.02972335      -0.03084564      -0.68913741
Al       9.05000000      11.07500000       7.02500000      -0.07444095       0.03100139       0.42198848
Al      11.07500000       9.05000000       7.02500000      -0.01035279      -0.07420500       0.40736448
Al      11.07500000      11.07500000       5.00000000      -0.01114490      -0.01239306      -0.67986076
Al       9.05457885       9.05728106       9.05698059       0.00378711      -0.00052546      -0.00719584
Al       9.06036349      11.10281172      11.07354007      -0.00596319      -0.01955651      -0.00028563
Al      11.07439917       9.03035683      11.06943478       0.00548620       0.00754829       0.01101443
Al      11.09025579      11.09396388       9.05882504      -0.01725970      -0.01713328       0.01558782
Al       9.05000000       9.05000000      13.10000000      -0.08301235      -0.06327847      -0.45047403
Al       9.05000000      11.07500000      15.12500000      -0.02249028      -0.00911010       0.68338943
Al      11.07500000       9.05000000      15.12500000      -0.00710934      -0.02374129       0.68168083
Al      11.07500000      11.07500000      13.10000000      -0.00165031       0.01670800      -0.34381102
Al       9.05000000      13.10000000       5.00000000      -0.02851047      -0.00570923      -0.68262759
Al       9.05000000      15.12500000       7.02500000      -0.01005431      -0.00218496       0.47203663
Al      11.07500000      13.10000000       7.02500000       0.03221523       0.05708009       0.35753886
Al      11.07500000      15.12500000       5.00000000      -0.00759510       0.00485185      -0.67317017
Al       9.04880395      13.11334176       9.06227387      -0.02875773      -0.00259412      -0.01326483
Al       9.00852234      15.12484518      11.07865802      -0.00163010      -0.01033713      -0.01057280
Al      11.14688844      13.17311904      11.09640741       0.00181091       0.02073571      -0.03471174
Al      11.11779157      15.12376630       9.08501496      -0.00193792      -0.00777102       0.00699594
Al       9.05000000      13.10000000      13.10000000      -0.07388316       0.01842876      -0.40011044
Al       9.05000000      15.12500000      15.12500000      -0.01797251       0.00366189       0.67371720
Al      11.07500000      13.10000000      15.12500000      -0.01316959      -0.01081931       0.68957700
Al      11.07500000      15.12500000      13.10000000       0.37962772      -0.00346677      -0.43646376
Al       9.05000000      17.15000000       5.00000000      -0.03001756       0.01309509      -0.68412377
Al       9.05000000      19.17500000       7.02500000      -0.05303362       0.05303362       0.47750033
Al      11.07500000      17.15000000       7.02500000       0.03646970      -0.03646970       0.36935932
Al      11.07500000      19.17500000       5.00000000      -0.01309509       0.03001756      -0.68412377
Al       9.05356227      17.13284591       9.06191549      -0.01126588       0.02065365      -0.00708648
Al       9.07312079      19.15187921      11.07090415      -0.01224672       0.01224672       0.00724289
Al      11.15038054      17.07461946      11.09639320       0.00755938      -0.00755938      -0.04557668
Al      11.09215409      19.17143773       9.06191549      -0.02065365       0.01126588      -0.00708648
Al       9.05000000      17.15000000      13.10000000      -0.06969361      -0.01080218      -0.40113112
Al       9.05000000      19.17500000      15.12500000      -0.02608552       0.02608552       0.68802615
Al      11.07500000      17.15000000      15.12500000      -0.01354282       0.01354282       0.69380680
Al      11.07500000      19.17500000      13.10000000       0.01080218       0.06969361      -0.40113112
Al       9.05000000      21.20000000       5.00000000      -0.03295784      -0.33815027      -0.62630873
Al       9.05000000      23.22500000       7.02500000      -0.01651962       0.58591739       0.23699153
Al      11.07500000      21.20000000       7.02500000       0.00097858      -0.09610208       0.56061149
Al      11.07500000      23.22500000       5.00000000      -0.01266021       0.21164807      -0.16644971
Al       9.06179477      21.22486978       9.06987214      -0.01034498      -0.02568718      -0.01879959
Al       9.04752317      23.40784076      11.09863247      -0.02055674      -0.01041588      -0.01031562
Al      11.07088826      21.25798865      11.05458808      -0.00407205      -0.03023782       0.01026483
Al      11.06745568      23.41574841       9.03571162       0.00006842       0.01869089      -0.00724782
Al       9.05000000      21.20000000      13.10000000      -0.04898805      -0.11615917      -0.57789654
Al       9.05000000      23.22500000      15.12500000      -0.03036258       0.20484377       0.16493979
Al      11.07500000      21.20000000      15.12500000      -0.01025298      -0.34649960       0.62451250
Al      11.07500000      23.22500000      13.10000000       0.00531148       0.62018917      -0.23225021
Al      13.10000000       5.00000000       5.00000000      -0.00372758      -0.21275608      -0.16536813
Al      13.10000000       7.02500000       7.02500000       0.00082677       0.04436980       0.52852975
Al      15.12500000       5.00000000       7.02500000       0.00941249      -0.62429469       0.26118468
Al      15.12500000       7.02500000       5.00000000       0.00499868       0.33994436      -0.62477795
Al      13.09812733       4.81336194       9.03610158       0.00243441      -0.03678842      -0.00886156
Al      13.09849993       6.97005319      11.05328762       0.00376381       0.00566636       0.02040390
Al      15.12758145       4.81283767      11.08746032      -0.00553170      -0.03114451       0.01719949
Al      15.12867070       6.96730910       9.06818308      -0.00767953       0.01271688      -0.00307222
Al      13.10000000       5.00000000      13.10000000      -0.00757264      -0.61162695      -0.27209735
Al      13.10000000       7.02500000      15.12500000      -0.00438153       0.34439700       0.62321154
Al      15.12500000       5.00000000      15.12500000       0.00334221      -0.20877989       0.16510192
Al      15.12500000       7.02500000      13.10000000       0.00113941       0.05325875      -0.53804747
Al      13.10000000       9.05000000       5.00000000      -0.00450453      -0.02868415      -0.68215887
Al      13.10000000      11.07500000       7.02500000      -0.00053450       0.08273381       0.40008529
Al      15.12500000       9.05000000       7.02500000      -0.00107573      -0.07929627       0.40628606
Al      15.12500000      11.07500000       5.00000000       0.00584029      -0.01240904      -0.67676538
Al      13.09994754       9.02847630       9.04962145       0.01005670      -0.01518579       0.01096914
Al      13.10120603      11.05116872      11.08145569       0.01248332      -0.01393134      -0.01472170
Al      15.12951806       9.02526519      11.06862736      -0.01886628      -0.00728328       0.02078321
Al      15.11099543      11.09119438       9.05858204       0.00095614      -0.02826199       0.00707133
Al      13.10000000       9.05000000      13.10000000       0.00433072      -0.15084810      -0.34655678
Al      13.10000000      11.07500000      15.12500000      -0.00349708      -0.00406309       0.66542523
Al      15.12500000       9.05000000      15.12500000       0.00219709      -0.02207607       0.67949300
Al      15.12500000      11.07500000      13.10000000      -0.01544869       0.01254247      -0.33349220
Al      13.10000000      13.10000000       5.00000000      -0.00472077      -0.00225450      -0.66874351
Al      13.10000000      15.12500000       7.02500000      -0.00327614       0.00327614       0.08193650
Al      15.12500000      13.10000000       7.02500000      -0.05431601       0.05431601       0.34346079
Al      15.12500000      15.12500000       5.00000000       0.00225450       0.00472077      -0.66874351
Al      13.10095963      13.14411032       9.08430037       0.00458354       0.01898113       0.01072388
Al      15.05237992      13.17262008      11.09614358      -0.01974536       0.01974536      -0.02188083
Al      15.08088968      15.12404037       9.08430037      -0.01898113      -0.00458354       0.01072388
Al      13.10000000      13.10000000      13.10000000      -0.00013536       0.39889000      -0.43264096
Al      13.10000000      15.12500000      15.12500000      -0.00365887       0.00365887       0.82603779
Al      15.12500000      13.10000000      15.12500000       0.01085164      -0.01085164       0.68478268
Al      15.12500000      15.12500000      13.10000000      -0.39889000       0.00013536      -0.43264096
Al      13.10000000      17.15000000       5.00000000      -0.00485185       0.00759510      -0.67317017
Al      13.10000000      19.17500000       7.02500000       0.00218496       0.01005431       0.47203663
Al      15.12500000      17.15000000       7.02500000      -0.05708009      -0.03221523       0.35753886
Al      15.12500000      19.17500000       5.00000000       0.00570923       0.02851047      -0.68262759
Al      13.10123370      17.10720843       9.08501496       0.00777102       0.00193792       0.00699594
Al      13.10015482      19.21647766      11.07865802       0.01033713       0.00163010      -0.01057280
Al      15.05188096      17.07811156      11.09640741      -0.02073571      -0.00181091      -0.03471174
Al      15.11165824      19.17619605       9.06227387       0.00259412       0.02875773      -0.01326483
Al      13.10000000      17.15000000      13.10000000       0.00346677      -0.37962772      -0.43646376
Al      13.10000000      19.17500000      15.12500000      -0.00366189       0.01797251       0.67371720
Al      15.12500000      17.15000000      15.12500000       0.01081931       0.01316959       0.68957700
Al      15.12500000      19.17500000      13.10000000      -0.01842876       0.07388316      -0.40011044
Al      13.10000000      21.20000000       5.00000000      -0.00557039      -0.34002813      -0.62351814
Al      13.10000000      23.22500000       7.02500000      -0.00923303       0.62442908       0.26284890
Al      15.12500000      21.20000000       7.02500000      -0.00046551      -0.09428099       0.57346738
Al      15.12500000      23.22500000       5.00000000       0.00375618       0.21380947      -0.16526633
Al      13.09865563      21.25745908       9.06727951       0.00089123      -0.00556124      -0.00840312
Al      13.09853699      23.41127544      11.08804842       0.00124295       0.03451005       0.00775568
Al      15.13071451      21.26045062      11.05234249      -0.01090485      -0.01287805       0.02028788
Al      15.12851851      23.41413961       9.03558483      -0.00651063       0.03392318      -0.01303758
Al      13.10000000      21.20000000      13.10000000       0.00273037      -0.02232229      -0.50368284
Al      13.10000000      23.22500000      15.12500000      -0.00343400       0.20974031       0.16635401
Al      15.12500000      21.20000000      15.12500000       0.00352886      -0.34788396       0.62339942
Al      15.12500000      23.22500000      13.10000000       0.01204520       0.61871705      -0.26569122
Al      17.15000000       5.00000000       5.00000000       0.01087536      -0.21071365      -0.16726986
Al      17.15000000       7.02500000       7.02500000      -0.00127107       0.06842830       0.52805314
Al      19.17500000       5.00000000       7.02500000       0.01572819      -0.59947502       0.22089829
Al      19.17500000       7.02500000       5.00000000       0.03146797       0.33849788      -0.62923689
Al      17.15803207       4.81071693       9.03528784      -0.00515933      -0.02773280      -0.00065332
Al      17.15389617       6.96952081      11.05495150      -0.00183299       0.03479038       0.01613733
Al      19.17731618       4.81917568      11.09810776       0.01827811       0.00376902      -0.00142932
Al      19.16858841       6.99343980       9.06804693      -0.00290585       0.03546658      -0.00708643
Al      17.15000000       5.00000000      13.10000000      -0.00288643      -0.61656522      -0.23455461
Al      17.15000000       7.02500000      15.12500000       0.01176356       0.34277819       0.62509642
Al      19.17500000       5.00000000      15.12500000       0.02893968      -0.20313534       0.16369756
Al      19.17500000       7.02500000      13.10000000       0.05404469       0.09880013      -0.56388990
Al      17.15000000       9.05000000       5.00000000       0.01112024      -0.02874540      -0.68626039
Al      17.15000000      11.07500000       7.02500000      -0.01812693       0.01812693       0.35902819
Al      19.17500000       9.05000000       7.02500000       0.07796767      -0.07796767       0.43553012
Al      19.17500000      11.07500000       5.00000000       0.02874540      -0.01112024      -0.68626039
Al      17.14064186       9.04473161       9.05382245       0.00329624       0.00068442       0.00848567
Al      17.12442173      11.10057827      11.07607937       0.01109261      -0.01109261      -0.00892899
Al      19.16753752       9.05746248      11.06794256      -0.00733383       0.00733383       0.02259383
Al      19.18026839      11.08435814       9.05382245      -0.00068442      -0.00329624       0.00848567
Al      17.15000000       9.05000000      13.10000000       0.00236340      -0.08448236      -0.39780781
Al      17.15000000      11.07500000      15.12500000       0.00684909      -0.00684909       0.67740824
Al      19.17500000       9.05000000      15.12500000       0.02775617      -0.02775617       0.68784833
Al      19.17500000      11.07500000      13.10000000       0.08448236      -0.00236340      -0.39780781
Al      17.15000000      13.10000000       5.00000000       0.01240904      -0.00584029      -0.67676538
Al      17.15000000      15.12500000       7.02500000      -0.08273381       0.00053450       0.40008529
Al      19.17500000      13.10000000       7.02500000       0.07929627       0.00107573       0.40628606
Al      19.17500000      15.12500000       5.00000000       0.02868415       0.00450453      -0.68215887
Al      17.13380562      13.11400457       9.05858204       0.02826199      -0.00095614       0.00707133
Al      17.17383128      15.12379397      11.08145569       0.01393134      -0.01248332      -0.01472170
Al      19.19973481      13.09548194      11.06862736       0.00728328       0.01886628       0.02078321
Al      19.19652370      15.12505246       9.04962145       0.01518579      -0.01005670       0.01096914
Al      17.15000000      13.10000000      13.10000000      -0.01254247       0.01544869      -0.33349220
Al      17.15000000      15.12500000      15.12500000       0.00406309       0.00349708       0.66542523
Al      19.17500000      13.10000000      15.12500000       0.02207607      -0.00219709       0.67949300
Al      19.17500000      15.12500000      13.10000000       0.15084810      -0.00433072      -0.34655678
Al      17.15000000      17.15000000       5.00000000       0.01239306       0.01114490      -0.67986076
Al      17.15000000      19.17500000       7.02500000      -0.03100139       0.07444095       0.42198848
Al      19.17500000      17.15000000       7.02500000       0.07420500       0.01035279       0.40736448
Al      19.17500000      19.17500000       5.00000000       0.03084564       0.02972335      -0.68913741
Al      17.13103612      17.13474421       9.05882504       0.01713328       0.01725970       0.01558782
Al      17.12218828      19.16463651      11.07354007       0.01955651       0.00596319      -0.00028563
Al      19.19464317      17.15060083      11.06943478      -0.00754829      -0.00548620       0.01101443
Al      19.16771894      19.17042115       9.05698059       0.00052546      -0.00378711      -0.00719584
Al      17.15000000      17.15000000      13.10000000      -0.01670800       0.00165031      -0.34381102
Al      17.15000000      19.17500000      15.12500000       0.00911010       0.02249028       0.68338943
Al      19.17500000      17.15000000      15.12500000       0.02374129       0.00710934       0.68168083
Al      19.17500000      19.17500000      13.10000000       0.06327847       0.08301235      -0.45047403
Al      17.15000000      21.20000000       5.00000000       0.01313898      -0.34010091      -0.62594229
Al      17.15000000      23.22500000       7.02500000      -0.00262278       0.60471856       0.24253361
Al      19.17500000      21.20000000       7.02500000       0.04511752      -0.09781116       0.56717635
Al      19.17500000      23.22500000       5.00000000       0.03095328       0.20658889      -0.16533488
Al      17.14493665      21.24388585       9.06859641       0.00596034      -0.02183893      -0.00713837
Al      17.15892245      23.41616239      11.08790989      -0.00608430       0.01605924       0.00499774
Al      19.16022509      21.22440943      11.05561475       0.00612860      -0.03117952       0.02145221
Al      19.17490131      23.40236791       9.02608684       0.01722100      -0.01267417       0.00844447
Al      17.15000000      21.20000000      13.10000000      -0.00731037      -0.08996399      -0.54345109
Al      17.15000000      23.22500000      15.12500000       0.01243591       0.20850338       0.16808729
Al      19.17500000      21.20000000      15.12500000       0.03150030      -0.34214536       0.62740071
Al      19.17500000      23.22500000      13.10000000       0.01519130       0.58514853      -0.23055652
Al      21.20000000       5.00000000       5.00000000      -0.45797862      -0.10616115      -0.07704545
Al      21.20000000       7.02500000       7.02500000      -0.15212347       0.15212347       0.68213027
Al      23.22500000       5.00000000       7.02500000       0.05041925      -0.05041925       0.54291580
Al      23.22500000       7.02500000       5.00000000       0.10616115       0.45797862      -0.07704545
Al      21.17322991       4.87436912       9.04608479       0.01494543       0.01217414      -0.01364226
Al      21.19736747       7.02763253      11.03894488      -0.02301435       0.02301435       0.04819735
Al      23.24803505       4.97696495      11.05796492       0.01440222      -0.01440222       0.02117310
Al      23.35063088       7.05177009       9.04608479      -0.01217414      -0.01494543      -0.01364226
Al      21.20000000       5.00000000      13.10000000      -0.23647273      -0.49001564      -0.40302889
Al      21.20000000       7.02500000      15.12500000      -0.33315760       0.33315760       0.57384203
Al      23.22500000       5.00000000      15.12500000      -0.32207264       0.32207264      -0.32861373
Al      23.22500000       7.02500000      13.10000000       0.49001564       0.23647273      -0.40302889
Al      21.20000000       9.05000000       5.00000000      -0.33849788      -0.03146797      -0.62923689
Al      21.20000000      11.07500000       7.02500000      -0.06842830       0.00127107       0.52805314
Al      23.22500000       9.05000000       7.02500000       0.59947502      -0.01572819       0.22089829
Al      23.22500000      11.07500000       5.00000000       0.21071365      -0.01087536      -0.16726986
Al      21.23156020       9.05641159       9.06804693      -0.03546658       0.00290585      -0.00708643
Al      21.25547919      11.07110383      11.05495150      -0.03479038       0.00183299       0.01613733
Al      23.40582432       9.04768382      11.09810776      -0.00376902      -0.01827811      -0.00142932
Al      23.41428307      11.06696793       9.03528784       0.02773280       0.00515933      -0.00065332
Al      21.20000000       9.05000000      13.10000000      -0.09880013      -0.05404469      -0.56388990
Al      21.20000000      11.07500000      15.12500000      -0.34277819      -0.01176356       0.62509642
Al      23.22500000       9.05000000      15.12500000       0.20313534      -0.02893968       0.16369756
Al      23.22500000      11.07500000      13.10000000       0.61656522       0.00288643      -0.23455461
Al      21.20000000      13.10000000       5.00000000      -0.33994436      -0.00499868      -0.62477795
Al      21.20000000      15.12500000       7.02500000      -0.04436980      -0.00082677       0.52852975
Al      23.22500000      13.10000000       7.02500000       0.62429469      -0.00941249       0.26118468
Al      23.22500000      15.12500000       5.00000000       0.21275608       0.00372758      -0.16536813
Al      21.25769090      13.09632930       9.06818308      -0.01271688       0.00767953      -0.00307222
Al      21.25494681      15.12650007      11.05328762      -0.00566636      -0.00376381       0.02040390
Al      23.41216233      13.09741855      11.08746032       0.03114451       0.00553170       0.01719949
Al      23.41163806      15.12687267       9.03610158       0.03678842      -0.00243441      -0.00886156
Al      21.20000000      13.10000000      13.10000000      -0.05325875      -0.00113941      -0.53804747
Al      21.20000000      15.12500000      15.12500000      -0.34439700       0.00438153       0.62321154
Al      23.22500000      13.10000000      15.12500000       0.20877989      -0.00334221       0.16510192
Al      23.22500000      15.12500000      13.10000000       0.61162695       0.00757264      -0.27209735
Al      21.20000000      17.15000000       5.00000000      -0.33909470       0.01271002      -0.62554160
Al      21.20000000      19.17500000       7.02500000      -0.09758576       0.05807958       0.56399751
Al      23.22500000      17.15000000       7.02500000       0.62473848      -0.00451882       0.22825285
Al      23.22500000      19.17500000       5.00000000       0.20659605       0.02993992      -0.16388291
Al      21.25512499      17.15260108       9.06630368      -0.03098653       0.00497849       0.00250447
Al      21.23665678      19.17184983      11.05471140      -0.03912842      -0.00081783       0.02070984
Al      23.41375658      17.15684308      11.08791777       0.01896477      -0.00225973       0.00854686
Al      23.40549601      19.17676511       9.02529387       0.00202639       0.02279568       0.01052226
Al      21.20000000      17.15000000      13.10000000      -0.05527313      -0.00347030      -0.52241710