299
Lattice="28.224999999999998 0.0 0.0 0.0 28.224999999999998 0.0 0.0 0.0 20.125" Properties=species:S:1:pos:R:3 energy=-16469.41002716388 pbc="T T T"
Al       5.00000000       5.00000000       5.00000000
Al       5.00000000       7.02500000       7.02500000
Al       7.02500000       5.00000000       7.02500000
Al       7.02500000       7.02500000       5.00000000
Al       5.00162378       5.00309038       9.14375309
Al       4.89939314       7.05752290      11.22999090
Al       7.05350688       4.89294237      11.23031496
Al       7.03911871       7.03919832       9.14756796
Al       5.00000000       5.00000000      13.31475834
Al       5.00000000       7.02500000      15.40111786
Al       7.02500000       5.00000000      15.40111786
Al       7.02500000       7.02500000      13.31475834
Al       5.00000000       9.05000000       5.00000000
Al       5.00000000      11.07500000       7.02500000
Al       7.02500000       9.05000000       7.02500000
Al       7.02500000      11.07500000       5.00000000
Al       4.84477638       9.04544858       9.10661823
Al       4.81754842      11.06313207      11.23439054
Al       7.00797843       9.06634982      11.20928765
Al       6.98361895      11.07445148       9.13813920
Al       5.00000000       9.05000000      13.31475834
Al       5.00000000      11.07500000      15.40111786
Al       7.02500000       9.05000000      15.40111786
Al       7.02500000      11.07500000      13.31475834
Al       5.00000000      13.10000000       5.00000000
Al       5.00000000      15.12500000       7.02500000
Al       7.02500000      13.10000000       7.02500000
Al       7.02500000      15.12500000       5.00000000
Al       4.81819708      13.09534034       9.11143340
Al       4.81713074      15.12815077      11.23572835
Al       6.96524237      13.09271382      11.20388971
Al       6.96654153      15.12824401       9.13625687
Al       5.00000000      13.10000000      13.31475834
Al       5.00000000      15.12500000      15.40111786
Al       7.02500000      13.10000000      15.40111786
Al       7.02500000      15.12500000      13.31475834
Al       5.00000000      17.15000000       5.00000000
Al       5.00000000      19.17500000       7.02500000
Al       7.02500000      17.15000000       7.02500000
Al       7.02500000      19.17500000       5.00000000
Al       4.82109880      17.16158974       9.11339148
Al       4.83322621      19.18289916      11.24258803
Al       6.97190056      17.15967438      11.20489928
Al       7.00557780      19.16261337       9.13507698
Al       5.00000000      17.15000000      13.31475834
Al       5.00000000      19.17500000      15.40111786
Al       7.02500000      17.15000000      15.40111786
Al       7.02500000      19.17500000      13.31475834
Al       5.00000000      21.20000000       5.00000000
Al       5.00000000      23.22500000       7.02500000
Al       7.02500000      21.20000000       7.02500000
Al       7.02500000      23.22500000       5.00000000
Al       4.90291912      21.16840914       9.12026010
Al       5.00135437      23.22364563      11.21138694
Al       7.04534481      21.17965519      11.19874572
Al       7.05659086      23.32208088       9.12026010
Al       5.00000000      21.20000000      13.31475834
Al       5.00000000      23.22500000      15.40111786
Al       7.02500000      21.20000000      15.40111786
Al       7.02500000      23.22500000      13.31475834
Al       9.05000000       5.00000000       5.00000000
Al       9.05000000       7.02500000       7.02500000
Al      11.07500000       5.00000000       7.02500000
Al      11.07500000       7.02500000       5.00000000
Al       9.04227019       4.83847156       9.10617608
Al       9.05527522       6.99715332      11.20847721
Al      11.06433901       4.82012281      11.23452026
Al      11.06755851       6.97539276       9.13693241
Al       9.05000000       5.00000000      13.31475834
Al       9.05000000       7.02500000      15.40111786
Al      11.07500000       5.00000000      15.40111786
Al      11.07500000       7.02500000      13.31475834
Al       9.05000000       9.05000000       5.00000000
Al       9.05000000      11.07500000       7.02500000
Al      11.07500000       9.05000000       7.02500000
Al      11.07500000      11.07500000       5.00000000
Al       9.05708499       9.05835340       9.12093123
Al       9.06569899      11.10169042      11.22105119
Al      11.07016553       9.03170100      11.21959760
Al      11.08279359      11.08731332       9.13335306
Al       9.05000000       9.05000000      13.31475834
Al       9.05000000      11.07500000      15.40111786
Al      11.07500000       9.05000000      15.40111786
Al      11.07500000      11.07500000      13.31475834
Al       9.05000000      13.10000000       5.00000000
Al       9.05000000      15.12500000       7.02500000
Al      11.07500000      13.10000000       7.02500000
Al      11.07500000      15.12500000       5.00000000
Al       9.04384887      13.11013157       9.13040814
Al       9.00555387      15.12560874      11.22265578
Al      11.15287841      13.18578620      11.23525120
Al      11.10194765      15.12535581       9.15203960
Al       9.05000000      13.10000000      13.31475834
Al       9.05000000      15.12500000      15.40111786
Al      11.07500000      13.10000000      15.40111786
Al      11.07500000      15.12500000      13.31475834
Al       9.05000000      17.15000000       5.00000000
Al       9.05000000      19.17500000       7.02500000
Al      11.07500000      17.15000000       7.02500000
Al      11.07500000      19.17500000       5.00000000
Al       9.05354582      17.13984604       9.13120066
Al       9.07977771      19.14522229      11.22322505
Al      11.15851635      17.06648365      11.23447945
Al      11.08515396      19.17145418       9.13120066
Al       9.05000000      17.15000000      13.31475834
Al       9.05000000      19.17500000      15.40111786
Al      11.07500000      17.15000000      15.40111786
Al      11.07500000      19.17500000      13.31475834
Al       9.05000000      21.20000000       5.00000000
Al       9.05000000      23.22500000       7.02500000
Al      11.07500000      21.20000000       7.02500000
Al      11.07500000      23.22500000       5.00000000
Al       9.06238663      21.21942220       9.13507698
Al       9.04210084      23.39177379      11.24258803
Al      11.06532562      21.25309944      11.20489928
Al      11.06341026      23.40390120       9.11339148
Al       9.05000000      21.20000000      13.31475834
Al       9.05000000      23.22500000      15.40111786
Al      11.07500000      21.20000000      15.40111786
Al      11.07500000      23.22500000      13.31475834
Al      13.10000000       5.00000000       5.00000000
Al      13.10000000       7.02500000       7.02500000
Al      15.12500000       5.00000000       7.02500000
Al      15.12500000       7.02500000       5.00000000
Al      13.09669859       4.82113683       9.11221903
Al      13.09674023       6.96985325      11.20375530
Al      15.12881501       4.81747653      11.23617185
Al      15.12999053       6.96855390       9.13766753
Al      13.10000000       5.00000000      13.31475834
Al      13.10000000       7.02500000      15.40111786
Al      15.12500000       5.00000000      15.40111786
Al      15.12500000       7.02500000      13.31475834
Al      13.10000000       9.05000000       5.00000000
Al      13.10000000      11.07500000       7.02500000
Al      15.12500000       9.05000000       7.02500000
Al      15.12500000      11.07500000       5.00000000
Al      13.09912527       9.02363647       9.11862946
Al      13.10033553      11.04148767      11.22141245
Al      15.13012015       9.02218027      11.21983642
Al      15.11401980      11.08153421       9.13178103
Al      13.10000000       9.05000000      13.31475834
Al      13.10000000      11.07500000      15.40111786
Al      15.12500000       9.05000000      15.40111786
Al      15.12500000      11.07500000      13.31475834
Al      13.10000000      13.10000000       5.00000000
Al      13.10000000      15.12500000       7.02500000
Al      15.12500000      13.10000000       7.02500000
Al      15.12500000      15.12500000       5.00000000
Al      13.09834080      13.13450711       9.15259641
Al      15.03954434      13.18545566      11.23604800
Al      15.09049289      15.12665920       9.15259641
Al      13.10000000      13.10000000      13.31475834
Al      13.10000000      15.12500000      15.40111786
Al      15.12500000      13.10000000      15.40111786
Al      15.12500000      15.12500000      13.31475834
Al      13.10000000      17.15000000       5.00000000
Al      13.10000000      19.17500000       7.02500000
Al      15.12500000      17.15000000       7.02500000
Al      15.12500000      19.17500000       5.00000000
Al      13.09964419      17.12305235       9.15203960
Al      13.09939126      19.21944613      11.22265578
Al      15.03921380      17.07212159      11.23525120
Al      15.11486843      19.18115113       9.13040814
Al      13.10000000      17.15000000      13.31475834
Al      13.10000000      19.17500000      15.40111786
Al      15.12500000      17.15000000      15.40111786
Al      15.12500000      19.17500000      13.31475834
Al      13.10000000      21.20000000       5.00000000
Al      13.10000000      23.22500000       7.02500000
Al      15.12500000      21.20000000       7.02500000
Al      15.12500000      23.22500000       5.00000000
Al      13.09675599      21.25845847       9.13625687
Al      13.09684923      23.40786926      11.23572835
Al      15.13228618      21.25975763      11.20388971
Al      15.12965966      23.40680292       9.11143340
Al      13.10000000      21.20000000      13.31475834
Al      13.10000000      23.22500000      15.40111786
Al      15.12500000      21.20000000      15.40111786
Al      15.12500000      23.22500000      13.31475834
Al      17.15000000       5.00000000       5.00000000
Al      17.15000000       7.02500000       7.02500000
Al      19.17500000       5.00000000       7.02500000
Al      19.17500000       7.02500000       5.00000000
Al      17.16176127       4.82231610       9.11381039
Al      17.15790080       6.97541817      11.20461370
Al      19.18277850       4.83520778      11.24229433
Al      19.16583477       7.00185597       9.13422413
Al      17.15000000       5.00000000      13.31475834
Al      17.15000000       7.02500000      15.40111786
Al      19.17500000       5.00000000      15.40111786
Al      19.17500000       7.02500000      13.31475834
Al      17.15000000       9.05000000       5.00000000
Al      17.15000000      11.07500000       7.02500000
Al      19.17500000       9.05000000       7.02500000
Al      19.17500000      11.07500000       5.00000000
Al      17.14607254       9.04401574       9.12247813
Al      17.12517743      11.09982257      11.21900411
Al      19.16411172       9.06088828      11.22159717
Al      19.18098426      11.07892746       9.12247813
Al      17.15000000       9.05000000      13.31475834
Al      17.15000000      11.07500000      15.40111786
Al      19.17500000       9.05000000      15.40111786
Al      19.17500000      11.07500000      13.31475834
Al      17.15000000      13.10000000       5.00000000
Al      17.15000000      15.12500000       7.02500000
Al      19.17500000      13.10000000       7.02500000
Al      19.17500000      15.12500000       5.00000000
Al      17.14346579      13.11098020       9.13178103
Al      17.18351233      15.12466447      11.22141245
Al      19.20281973      13.09487985      11.21983642
Al      19.20136353      15.12587473       9.11862946
Al      17.15000000      13.10000000      13.31475834
Al      17.15000000      15.12500000      15.40111786
Al      19.17500000      13.10000000      15.40111786
Al      19.17500000      15.12500000      13.31475834
Al      17.15000000      17.15000000       5.00000000
Al      17.15000000      19.17500000       7.02500000
Al      19.17500000      17.15000000       7.02500000
Al      19.17500000      19.17500000       5.00000000
Al      17.13768668      17.14220641       9.13335306
Al      17.12330958      19.15930101      11.22105119
Al      19.19329900      17.15483447      11.21959760
Al      19.16664660      19.16791501       9.12093123
Al      17.15000000      17.15000000      13.31475834
Al      17.15000000      19.17500000      15.40111786
Al      19.17500000      17.15000000      15.40111786
Al      19.17500000      19.17500000      13.31475834
Al      17.15000000      21.20000000       5.00000000
Al      17.15000000      23.22500000       7.02500000
Al      19.17500000      21.20000000       7.02500000
Al      19.17500000      23.22500000       5.00000000
Al      17.15054852      21.24138105       9.13813920
Al      17.16186793      23.40745158      11.23439054
Al      19.15865018      21.21702157      11.20928765
Al      19.17955142      23.38022362       9.10661823
Al      17.15000000      21.20000000      13.31475834
Al      17.15000000      23.22500000      15.40111786
Al      19.17500000      21.20000000      15.40111786
Al      19.17500000      23.22500000      13.31475834
Al      21.20000000       5.00000000       5.00000000
Al      21.20000000       7.02500000       7.02500000
Al      23.22500000       5.00000000       7.02500000
Al      23.22500000       7.02500000       5.00000000
Al      21.17008289       4.89978779       9.11981690
Al      21.18540669       7.03959331      11.19758474
Al      23.22622240       4.99877760      11.21154609
Al      23.32521221       7.05491711       9.11981690
Al      21.20000000       5.00000000      13.31475834
Al      21.20000000       7.02500000      15.40111786
Al      23.22500000       5.00000000      15.40111786
Al      23.22500000       7.02500000      13.31475834
Al      21.20000000       9.05000000       5.00000000
Al      21.20000000      11.07500000       7.02500000
Al      23.22500000       9.05000000       7.02500000
Al      23.22500000      11.07500000       5.00000000
Al      21.22314403       9.05916523       9.13422413
Al      21.24958183      11.06709920      11.20461370
Al      23.38979222       9.04222150      11.24229433
Al      23.40268390      11.06323873       9.11381039
Al      21.20000000       9.05000000      13.31475834
Al      21.20000000      11.07500000      15.40111786
Al      23.22500000       9.05000000      15.40111786
Al      23.22500000      11.07500000      13.31475834
Al      21.20000000      13.10000000       5.00000000
Al      21.20000000      15.12500000       7.02500000
Al      23.22500000      13.10000000       7.02500000
Al      23.22500000      15.12500000       5.00000000
Al      21.25644610      13.09500947       9.13766753
Al      21.25514675      15.12825977      11.20375530
Al      23.40752347      13.09618499      11.23617185
Al      23.40386317      15.12830141       9.11221903
Al      21.20000000      13.10000000      13.31475834
Al      21.20000000      15.12500000      15.40111786
Al      23.22500000      13.10000000      15.40111786
Al      23.22500000      15.12500000      13.31475834
Al      21.20000000      17.15000000       5.00000000
Al      21.20000000      19.17500000       7.02500000
Al      23.22500000      17.15000000       7.02500000
Al      23.22500000      19.17500000       5.00000000
Al      21.24960724      17.15744149       9.13693241
Al      21.22784668      19.16972478      11.20847721
Al      23.40487719      17.16066099      11.23452026
Al      23.38652844      19.18272981       9.10617608
Al      21.20000000      17.15000000      13.31475834
Al      21.20000000      19.17500000      15.40111786
Al      23.22500000      17.15000000      15.40111786
Al      23.22500000      19.17500000      13.31475834
Al      21.20000000      21.20000000       5.00000000
Al      21.20000000      23.22500000       7.02500000
Al      23.22500000      21.20000000       7.02500000
Al      23.22500000      23.22500000       5.00000000
Al      21.18580168      21.18588129       9.14756796
Al      21.16747710      23.32560686      11.22999090
Al      23.33205763      21.17149312      11.23031496
Al      23.22190962      23.22337622       9.14375309
Al      21.20000000      21.20000000      13.31475834
Al      21.20000000      23.22500000      15.40111786
Al      23.22500000      21.20000000      15.40111786
Al      23.22500000      23.22500000      13.31475834
