299
Lattice="28.224999999999998 0.0 0.0 0.0 28.224999999999998 0.0 0.0 0.0 20.125" Properties=species:S:1:pos:R:3:forces:R:3 energy=-16459.798029128215 pbc="T T T"
Al       5.00000000       5.00000000       5.00000000       0.34882636       0.34845091       0.19380317
Al       5.00000000       7.02500000       7.02500000      -0.21607269       0.42936708       0.97489833
Al       7.02500000       5.00000000       7.02500000       0.41483699      -0.21849291       0.97083247
Al       7.02500000       7.02500000       5.00000000       0.32405267       0.32579184      -0.66125861
Al       5.18953941       5.19357956       9.33993015       0.03050753       0.03172799       0.00346666
Al       5.06818363       7.14811517      11.58662013       0.03340294       0.02090152       0.00043195
Al       7.12773877       5.02252985      11.59153838       0.01120179       0.01020243       0.00286124
Al       7.16244010       7.15951360       9.29776390       0.01671950       0.01873227      -0.00345028
Al       5.00000000       5.00000000      13.84150931       0.55826162       0.57686288      -0.48378289
Al       5.00000000       7.02500000      16.07836912       0.14405410       0.46933937      -0.57136549
Al       7.02500000       5.00000000      16.07836912       0.46789396       0.14116426      -0.57534923
Al       7.02500000       7.02500000      13.84150931       0.37470073       0.37544101      -0.20368130
Al       5.00000000       9.05000000       5.00000000      -0.18759240      -0.03224513      -0.27290784
Al       5.00000000      11.07500000       7.02500000      -0.35495322      -0.00719488       1.04117049
Al       7.02500000       9.05000000       7.02500000       0.30371731       0.05286597       1.17214184
Al       7.02500000      11.07500000       5.00000000       0.32934946      -0.00890074      -0.71899126
Al       4.97487277       9.04987744       9.26876365       0.01961895       0.00844465      -0.00683843
Al       4.94789793      11.05469340      11.56178904       0.01701576       0.00155001      -0.00343544
Al       7.12211126       9.13942277      11.56731190       0.02616615       0.03345523      -0.00617734
Al       7.05435280      11.08166979       9.28860634       0.01158245       0.00718400      -0.00361369
Al       5.00000000       9.05000000      13.84150931      -0.08845242       0.08269009      -0.15620863
Al       5.00000000      11.07500000      16.07836912       0.03614990      -0.01255691      -0.47185059
Al       7.02500000       9.05000000      16.07836912       0.33679322      -0.03572722      -0.23485523
Al       7.02500000      11.07500000      13.84150931       0.29712114       0.04250775      -0.26477768
Al       5.00000000      13.10000000       5.00000000      -0.18905294      -0.00129580      -0.27606073
Al       5.00000000      15.12500000       7.02500000      -0.37186293       0.01912241       1.06383026
Al       7.02500000      13.10000000       7.02500000       0.26518899       0.00699904       1.26255261
Al       7.02500000      15.12500000       5.00000000       0.33116129       0.00579820      -0.71730594
Al       4.95763508      13.09397139       9.27970041       0.02688448       0.00366439      -0.00170055
Al       4.96692735      15.12960847      11.56128659       0.03084259       0.00255989      -0.00365305
Al       7.02623137      13.08248603      11.55830277       0.01713860       0.00273989      -0.00730254
Al       7.03370648      15.13205074       9.28662271       0.01242896       0.00503821       0.00179969
Al       5.00000000      13.10000000      13.84150931      -0.14813383      -0.01396728      -0.30524285
Al       5.00000000      15.12500000      16.07836912       0.03862437       0.00603103      -0.47087330
Al       7.02500000      13.10000000      16.07836912       0.33966502      -0.00068641      -0.23399575
Al       7.02500000      15.12500000      13.84150931       0.23301308       0.00875055      -0.27956147
Al       5.00000000      17.15000000       5.00000000      -0.18879449       0.01592914      -0.27386189
Al       5.00000000      19.17500000       7.02500000      -0.32605512      -0.08606314       0.89743553
Al       7.02500000      17.15000000       7.02500000       0.26944350      -0.02123601       1.22493702
Al       7.02500000      19.17500000       5.00000000       0.32904590       0.03742592      -0.71126563
Al       4.95146320      17.16823882       9.28117066       0.02297826       0.00282731      -0.00113538
Al       4.95642632      19.19207245      11.57537571       0.02087252       0.00128506      -0.00376098
Al       7.03017403      17.17055104      11.56090302       0.01465205       0.00867036      -0.00533564
Al       7.09418201      19.11961810       9.28031926       0.02428015      -0.02214965      -0.00498088
Al       5.00000000      17.15000000      13.84150931      -0.14421440       0.02044341      -0.28415776
Al       5.00000000      19.17500000      16.07836912       0.04087340       0.03553463      -0.47669596
Al       7.02500000      17.15000000      16.07836912       0.34050757       0.01374688      -0.23541503
Al       7.02500000      19.17500000      13.84150931       0.33264452      -0.05851157      -0.20839117
Al       5.00000000      21.20000000       5.00000000      -0.08399160      -0.45528579      -0.17263919
Al       5.00000000      23.22500000       7.02500000       0.29195011      -0.29195011       1.00240400
Al       7.02500000      21.20000000       7.02500000       0.37640536      -0.37640536       1.14684177
Al       7.02500000      23.22500000       5.00000000       0.45528579       0.08399160      -0.17263919
Al       5.04307541      21.08787788       9.25178333       0.02894020      -0.02071076      -0.01574468
Al       5.22573427      22.99926573      11.50095510       0.04892937      -0.04892937      -0.01123953
Al       7.20401575      21.02098425      11.55036369       0.03343833      -0.03343833      -0.01109833
Al       7.13712212      23.18192459       9.25178333       0.02071076      -0.02894020      -0.01574468
Al       5.00000000      21.20000000      13.84150931       0.03489740      -0.44629540      -0.19994864
Al       5.00000000      23.22500000      16.07836912       0.61506675      -0.61506675      -0.69107909
Al       7.02500000      21.20000000      16.07836912       0.33414894      -0.33414894      -0.28613974
Al       7.02500000      23.22500000      13.84150931       0.44629540      -0.03489740      -0.19994864
Al       9.05000000       5.00000000       5.00000000      -0.03553360      -0.18999480      -0.27220271
Al       9.05000000       7.02500000       7.02500000       0.03484196       0.29569624       1.16746634
Al      11.07500000       5.00000000       7.02500000      -0.01732676      -0.37038401       1.03937122
Al      11.07500000       7.02500000       5.00000000      -0.01398577       0.33019399      -0.72010498
Al       9.04001988       4.95753852       9.26850770       0.00117639       0.01232758      -0.00559774
Al       9.08336125       7.07411326      11.56957549       0.00915818       0.01634011      -0.00278195
Al      11.05974940       4.95988656      11.56131818      -0.00270605       0.01580773      -0.00297746
Al      11.06185279       7.04032123       9.28608306      -0.00944926       0.00859129      -0.00432662
Al       9.05000000       5.00000000      13.84150931       0.07231416      -0.11848139      -0.14591931
Al       9.05000000       7.02500000      16.07836912      -0.03922455       0.33786764      -0.23589044
Al      11.07500000       5.00000000      16.07836912      -0.01679856       0.03407820      -0.46988250
Al      11.07500000       7.02500000      13.84150931       0.00740362       0.25015846      -0.24467979
Al       9.05000000       9.05000000       5.00000000      -0.03789141      -0.03372012      -0.78068641
Al       9.05000000      11.07500000       7.02500000       0.01239889       0.06093219       1.17801666
Al      11.07500000       9.05000000       7.02500000       0.02501036       0.00889585       1.16944672
Al      11.07500000      11.07500000       5.00000000      -0.01199849      -0.00576016      -0.78409628
Al       9.12018838       9.12569623       9.28307009       0.02284054       0.02974418       0.00031031
Al       9.15763449      11.17925617      11.56920477       0.03502279       0.03298214      -0.00736783
Al      11.08317182       9.05938943      11.56952278       0.00024680       0.02192786      -0.00398005
Al      11.11610436      11.11748630       9.29457002       0.00925818       0.01882023       0.00653952
Al       9.05000000       9.05000000      13.84150931       0.02830241       0.05433809      -0.17478647
Al       9.05000000      11.07500000      16.07836912      -0.03939691      -0.00966075      -0.17131227
Al      11.07500000       9.05000000      16.07836912      -0.01538276      -0.03557216      -0.17313552
Al      11.07500000      11.07500000      13.84150931       0.07174020       0.10650438      -0.26174077
Al       9.05000000      13.10000000       5.00000000      -0.03541058       0.00224674      -0.78188149
Al       9.05000000      15.12500000       7.02500000      -0.05626407      -0.00687445       1.14088085
Al      11.07500000      13.10000000       7.02500000      -0.04676668      -0.02912618       1.06961526
Al      11.07500000      15.12500000       5.00000000      -0.00892906       0.00549521      -0.76634652
Al       9.06621780      13.11642199       9.29021313       0.01174243       0.00737991       0.00720703
Al       9.02406527      15.12676267      11.56634914       0.00618233       0.00571290      -0.01058711
Al      11.27430192      13.30041212      11.55289382       0.02887706       0.03542057      -0.01681087
Al      11.09644656      15.11642729       9.23855219      -0.01072626       0.00289964      -0.00549020
Al       9.05000000      13.10000000      13.84150931       0.06546074       0.08015303      -0.27294916
Al       9.05000000      15.12500000      16.07836912      -0.03854355       0.00665525      -0.17402229
Al      11.07500000      13.10000000      16.07836912      -0.01715873      -0.00202139      -0.16195234
Al      11.07500000      15.12500000      13.84150931       0.05905155      -0.00231408       0.03294098
Al       9.05000000      17.15000000       5.00000000      -0.03554950       0.01219708      -0.77884402
Al       9.05000000      19.17500000       7.02500000       0.04167850      -0.04167850       1.14429546
Al      11.07500000      17.15000000       7.02500000      -0.02922312       0.02922312       1.06393809
Al      11.07500000      19.17500000       5.00000000      -0.01219708       0.03554950      -0.77884402
Al       9.08995859      17.11426228       9.28762129       0.01679420      -0.00496599       0.00061369
Al       9.20241398      19.02258602      11.56755672       0.04959526      -0.04959526      -0.01233960
Al      11.30071869      16.92428131      11.54842127       0.04372601      -0.04372601      -0.01671375
Al      11.11073772      19.13504141       9.28762129       0.00496599      -0.01679420       0.00061369
Al       9.05000000      17.15000000      13.84150931       0.07743038      -0.09391359      -0.23504347
Al       9.05000000      19.17500000      16.07836912      -0.03720750       0.03720750      -0.17517053
Al      11.07500000      17.15000000      16.07836912      -0.01678541       0.01678541      -0.16336279
Al      11.07500000      19.17500000      13.84150931       0.09391359      -0.07743038      -0.23504347
Al       9.05000000      21.20000000       5.00000000      -0.03742592      -0.32904590      -0.71126563
Al       9.05000000      23.22500000       7.02500000       0.08606314       0.32605512       0.89743553
Al      11.07500000      21.20000000       7.02500000       0.02123601      -0.26944350       1.22493702
Al      11.07500000      23.22500000       5.00000000      -0.01592914       0.18879449      -0.27386189
Al       9.10538190      21.13081799       9.28031926       0.02214965      -0.02428015      -0.00498088
Al       9.03292755      23.26857368      11.57537571      -0.00128506      -0.02087252      -0.00376098
Al      11.05444896      21.19482597      11.56090302      -0.00867036      -0.01465205      -0.00533564
Al      11.05676118      23.27353680       9.28117066      -0.00282731      -0.02297826      -0.00113538
Al       9.05000000      21.20000000      13.84150931       0.05851157      -0.33264452      -0.20839117
Al       9.05000000      23.22500000      16.07836912      -0.03553463      -0.04087340      -0.47669596
Al      11.07500000      21.20000000      16.07836912      -0.01374688      -0.34050757      -0.23541503
Al      11.07500000      23.22500000      13.84150931      -0.02044341       0.14421440      -0.28415776
Al      13.10000000       5.00000000       5.00000000      -0.00597486      -0.19259451      -0.27909334
Al      13.10000000       7.02500000       7.02500000      -0.00871795       0.23979126       1.24188911
Al      15.12500000       5.00000000       7.02500000       0.01365721      -0.37597841       1.06355765
Al      15.12500000       7.02500000       5.00000000       0.00044016       0.33013658      -0.72172908
Al      13.09542167       4.96403295       9.28062368      -0.00320875       0.02132630      -0.00320155
Al      13.09307544       7.04009004      11.55724016      -0.00496867       0.01164031      -0.00488089
Al      15.12884835       4.96706567      11.56176828      -0.00339804       0.01969790      -0.00225961
Al      15.13582920       7.03597506       9.28748592      -0.00247925       0.00983395      -0.00172921
Al      13.10000000       5.00000000      13.84150931      -0.01742314      -0.14227342      -0.30991911
Al      13.10000000       7.02500000      16.07836912      -0.00673679       0.33901012      -0.23078783
Al      15.12500000       5.00000000      16.07836912       0.00203514       0.03323188      -0.46784761
Al      15.12500000       7.02500000      13.84150931       0.00535103       0.24297506      -0.27720347
Al      13.10000000       9.05000000       5.00000000      -0.00556131      -0.03357756      -0.78538707
Al      13.10000000      11.07500000       7.02500000      -0.00150759      -0.02634837       1.14123697
Al      15.12500000       9.05000000       7.02500000      -0.01773123      -0.00659291       1.18795323
Al      15.12500000      11.07500000       5.00000000      -0.00230584      -0.00527454      -0.78537520
Al      13.09920494       9.04368329       9.27851372      -0.00610364       0.01161135       0.00568454
Al      13.11061918      11.05358121      11.56516620      -0.00085165       0.00400386      -0.00804457
Al      15.13720254       9.03471660      11.56707658      -0.00199635       0.01676355      -0.00713353
Al      15.09936001      11.09905956       9.29123709      -0.01100554       0.01000752       0.00946526
Al      13.10000000       9.05000000      13.84150931       0.00552086      -0.05148985      -0.20024314
Al      13.10000000      11.07500000      16.07836912      -0.00718317      -0.00911148      -0.17146746
Al      15.12500000       9.05000000      16.07836912       0.00032209      -0.03603871      -0.17057117
Al      15.12500000      11.07500000      13.84150931      -0.07491523       0.09010958      -0.26390962
Al      13.10000000      13.10000000       5.00000000      -0.00513256       0.00537101      -0.76694340
Al      13.10000000      15.12500000       7.02500000      -0.00779133       0.00779133       0.86298551
Al      15.12500000      13.10000000       7.02500000       0.03188962      -0.03188962       1.06717623
Al      15.12500000      15.12500000       5.00000000      -0.00537101       0.00513256      -0.76694340
Al      13.10541112      13.12472565       9.24201706      -0.00335688      -0.00019839       0.00094864
Al      14.91983266      13.30516734      11.55418632      -0.04170815       0.04170815      -0.01951724
Al      15.10027435      15.11958888       9.24201706       0.00019839       0.00335688       0.00094864
Al      13.10000000      13.10000000      13.84150931      -0.01629385       0.08623882       0.01818360
Al      13.10000000      15.12500000      16.07836912      -0.00711787       0.00711787      -0.10048461
Al      15.12500000      13.10000000      16.07836912       0.00181814      -0.00181814      -0.16136104
Al      15.12500000      15.12500000      13.84150931      -0.08623882       0.01629385       0.01818360
Al      13.10000000      17.15000000       5.00000000      -0.00549521       0.00892906      -0.76634652
Al      13.10000000      19.17500000       7.02500000       0.00687445       0.05626407       1.14088085
Al      15.12500000      17.15000000       7.02500000       0.02912618       0.04676668       1.06961526
Al      15.12500000      19.17500000       5.00000000      -0.00224674       0.03541058      -0.78188149
Al      13.10857271      17.12855344       9.23855219      -0.00289964       0.01072626      -0.00549020
Al      13.09823733      19.20093473      11.56634914      -0.00571290      -0.00618233      -0.01058711
Al      14.92458788      16.95069808      11.55289382      -0.03542057      -0.02887706      -0.01681087
Al      15.10857801      19.15878220       9.29021313      -0.00737991      -0.01174243       0.00720703
Al      13.10000000      17.15000000      13.84150931       0.00231408      -0.05905155       0.03294098
Al      13.10000000      19.17500000      16.07836912      -0.00665525       0.03854355      -0.17402229
Al      15.12500000      17.15000000      16.07836912       0.00202139       0.01715873      -0.16195234
Al      15.12500000      19.17500000      13.84150931      -0.08015303      -0.06546074      -0.27294916
Al      13.10000000      21.20000000       5.00000000      -0.00579820      -0.33116129      -0.71730594
Al      13.10000000      23.22500000       7.02500000      -0.01912241       0.37186293       1.06383026
Al      15.12500000      21.20000000       7.02500000      -0.00699904      -0.26518899       1.26255261
Al      15.12500000      23.22500000       5.00000000       0.00129580       0.18905294      -0.27606073
Al      13.09294926      21.19129352       9.28662271      -0.00503821      -0.01242896       0.00179969
Al      13.09539153      23.25807265      11.56128659      -0.00255989      -0.03084259      -0.00365305
Al      15.14251397      21.19876863      11.55830277      -0.00273989      -0.01713860      -0.00730254
Al      15.13102861      23.26736492       9.27970041      -0.00366439      -0.02688448      -0.00170055
Al      13.10000000      21.20000000      13.84150931      -0.00875055      -0.23301308      -0.27956147
Al      13.10000000      23.22500000      16.07836912      -0.00603103      -0.03862437      -0.47087330
Al      15.12500000      21.20000000      16.07836912       0.00068641      -0.33966502      -0.23399575
Al      15.12500000      23.22500000      13.84150931       0.01396728       0.14813383      -0.30524285
Al      17.15000000       5.00000000       5.00000000       0.01296371      -0.19496415      -0.27800599
Al      17.15000000       7.02500000       7.02500000      -0.01959588       0.25827600       1.21369294
Al      19.17500000       5.00000000       7.02500000      -0.08156825      -0.33908094       0.90063655
Al      19.17500000       7.02500000       5.00000000       0.03611623       0.32674493      -0.71739777
Al      17.16701583       4.95167145       9.28127590      -0.00074308       0.00871304      -0.00330055
Al      17.16636255       7.03451662      11.56037824       0.00411580       0.00423538      -0.00131954
Al      19.18831725       4.96012356      11.57478632       0.00038776       0.00504982      -0.00157461
Al      19.12438338       7.08853088       9.27956513      -0.01932632       0.01652732      -0.00836776
Al      17.15000000       5.00000000      13.84150931       0.01502771      -0.14868022      -0.28270475
Al      17.15000000       7.02500000      16.07836912       0.01051843       0.33752747      -0.23001443
Al      19.17500000       5.00000000      16.07836912       0.03503710       0.03460442      -0.47239779
Al      19.17500000       7.02500000      13.84150931      -0.04368173       0.30943096      -0.20330828
Al      17.15000000       9.05000000       5.00000000       0.00917664      -0.03488287      -0.78631278
Al      17.15000000      11.07500000       7.02500000      -0.04089361       0.04089361       1.18690256
Al      19.17500000       9.05000000       7.02500000      -0.02836056       0.02836056       1.12960597
Al      19.17500000      11.07500000       5.00000000       0.03488287      -0.00917664      -0.78631278
Al      17.11967928       9.08656297       9.28229740      -0.01413574       0.02070568      -0.00210596
Al      17.03786691      11.18713309      11.56532970      -0.04126846       0.04126846      -0.00720916
Al      19.07070869       9.15429131      11.56771919      -0.03813709       0.03813709      -0.00610224
Al      19.13843703      11.10532072       9.28229740      -0.02070568       0.01413574      -0.00210596
Al      17.15000000       9.05000000      13.84150931      -0.04918998       0.02464103      -0.19884470
Al      17.15000000      11.07500000      16.07836912       0.00990810      -0.00990810      -0.16764588
Al      19.17500000       9.05000000      16.07836912       0.03638417      -0.03638417      -0.17040751
Al      19.17500000      11.07500000      13.84150931      -0.02464103       0.04918998      -0.19884470
Al      17.15000000      13.10000000       5.00000000       0.00527454       0.00230584      -0.78537520
Al      17.15000000      15.12500000       7.02500000       0.02634837       0.00150759       1.14123697
Al      19.17500000      13.10000000       7.02500000       0.00659291       0.01773123       1.18795323
Al      19.17500000      15.12500000       5.00000000       0.03357756       0.00556131      -0.78538707
Al      17.12594044      13.12563999       9.29123709      -0.01000752       0.01100554       0.00946526
Al      17.17141879      15.11438082      11.56516620      -0.00400386       0.00085165      -0.00804457
Al      19.19028340      13.08779746      11.56707658      -0.01676355       0.00199635      -0.00713353
Al      19.18131671      15.12579506       9.27851372      -0.01161135       0.00610364       0.00568454
Al      17.15000000      13.10000000      13.84150931      -0.09010958       0.07491523      -0.26390962
Al      17.15000000      15.12500000      16.07836912       0.00911148       0.00718317      -0.17146746
Al      19.17500000      13.10000000      16.07836912       0.03603871      -0.00032209      -0.17057117
Al      19.17500000      15.12500000      13.84150931       0.05148985      -0.00552086      -0.20024314
Al      17.15000000      17.15000000       5.00000000       0.00576016       0.01199849      -0.78409628
Al      17.15000000      19.17500000       7.02500000      -0.06093219      -0.01239889       1.17801666
Al      19.17500000      17.15000000       7.02500000      -0.00889585      -0.02501036       1.16944672
Al      19.17500000      19.17500000       5.00000000       0.03372012       0.03789141      -0.78068641
Al      17.10751370      17.10889564       9.29457002      -0.01882023      -0.00925818       0.00653952
Al      17.04574383      19.06736551      11.56920477      -0.03298214      -0.03502279      -0.00736783
Al      19.16561057      17.14182818      11.56952278      -0.02192786      -0.00024680      -0.00398005
Al      19.09930377      19.10481162       9.28307009      -0.02974418      -0.02284054       0.00031031
Al      17.15000000      17.15000000      13.84150931      -0.10650438      -0.07174020      -0.26174077
Al      17.15000000      19.17500000      16.07836912       0.00966075       0.03939691      -0.17131227
Al      19.17500000      17.15000000      16.07836912       0.03557216       0.01538276      -0.17313552
Al      19.17500000      19.17500000      13.84150931      -0.05433809      -0.02830241      -0.17478647
Al      17.15000000      21.20000000       5.00000000       0.00890074      -0.32934946      -0.71899126
Al      17.15000000      23.22500000       7.02500000       0.00719488       0.35495322       1.04117049
Al      19.17500000      21.20000000       7.02500000      -0.05286597      -0.30371731       1.17214184
Al      19.17500000      23.22500000       5.00000000       0.03224513       0.18759240      -0.27290784
Al      17.14333021      21.17064720       9.28860634      -0.00718400      -0.01158245      -0.00361369
Al      17.17030660      23.27710207      11.56178904      -0.00155001      -0.01701576      -0.00343544
Al      19.08557723      21.10288874      11.56731190      -0.03345523      -0.02616615      -0.00617734
Al      19.17512256      23.25012723       9.26876365      -0.00844465      -0.01961895      -0.00683843
Al      17.15000000      21.20000000      13.84150931      -0.04250775      -0.29712114      -0.26477768
Al      17.15000000      23.22500000      16.07836912       0.01255691      -0.03614990      -0.47185059
Al      19.17500000      21.20000000      16.07836912       0.03572722      -0.33679322      -0.23485523
Al      19.17500000      23.22500000      13.84150931      -0.08269009       0.08845242      -0.15620863
Al      21.20000000       5.00000000       5.00000000      -0.45298005      -0.09101997      -0.17685314
Al      21.20000000       7.02500000       7.02500000      -0.36330265       0.36330265       1.14948406
Al      23.22500000       5.00000000       7.02500000      -0.28124707       0.28124707       0.99778850
Al      23.22500000       7.02500000       5.00000000       0.09101997       0.45298005      -0.17685314
Al      21.09291213       5.03733056       9.25308295      -0.01496504       0.01507748      -0.01523394
Al      21.04641231       7.17858769      11.55063933      -0.02031502       0.02031502      -0.00531558
Al      23.01752303       5.20747697      11.50335423      -0.03410803       0.03410803      -0.01104681
Al      23.18766944       7.13208787       9.25308295      -0.01507748       0.01496504      -0.01523394
Al      21.20000000       5.00000000      13.84150931      -0.43470415       0.01515761      -0.20706008
Al      21.20000000       7.02500000      16.07836912      -0.33120678       0.33120678      -0.28147295
Al      23.22500000       5.00000000      16.07836912      -0.60944841       0.60944841      -0.69132220
Al      23.22500000       7.02500000      13.84150931      -0.01515761       0.43470415      -0.20706008
Al      21.20000000       9.05000000       5.00000000      -0.32674493      -0.03611623      -0.71739777
Al      21.20000000      11.07500000       7.02500000      -0.25827600       0.01959588       1.21369294
Al      23.22500000       9.05000000       7.02500000       0.33908094       0.08156825       0.90063655
Al      23.22500000      11.07500000       5.00000000       0.19496415      -0.01296371      -0.27800599
Al      21.13646912       9.10061662       9.27956513      -0.01652732       0.01932632      -0.00836776
Al      21.19048338      11.05863745      11.56037824      -0.00423538      -0.00411580      -0.00131954
Al      23.26487644       9.03668275      11.57478632      -0.00504982      -0.00038776      -0.00157461
Al      23.27332855      11.05798417       9.28127590      -0.00871304       0.00074308      -0.00330055
Al      21.20000000       9.05000000      13.84150931      -0.30943096       0.04368173      -0.20330828
Al      21.20000000      11.07500000      16.07836912      -0.33752747      -0.01051843      -0.23001443
Al      23.22500000       9.05000000      16.07836912      -0.03460442      -0.03503710      -0.47239779
Al      23.22500000      11.07500000      13.84150931       0.14868022      -0.01502771      -0.28270475
Al      21.20000000      13.10000000       5.00000000      -0.33013658      -0.00044016      -0.72172908
Al      21.20000000      15.12500000       7.02500000      -0.23979126       0.00871795       1.24188911
Al      23.22500000      13.10000000       7.02500000       0.37597841      -0.01365721       1.06355765
Al      23.22500000      15.12500000       5.00000000       0.19259451       0.00597486      -0.27909334
Al      21.18902494      13.08917080       9.28748592      -0.00983395       0.00247925      -0.00172921
Al      21.18490996      15.13192456      11.55724016      -0.01164031       0.00496867      -0.00488089
Al      23.25793433      13.09615165      11.56176828      -0.01969790       0.00339804      -0.00225961
Al      23.26096705      15.12957833       9.28062368      -0.02132630       0.00320875      -0.00320155
Al      21.20000000      13.10000000      13.84150931      -0.24297506      -0.00535103      -0.27720347
Al      21.20000000      15.12500000      16.07836912      -0.33901012       0.00673679      -0.23078783
Al      23.22500000      13.10000000      16.07836912      -0.03323188      -0.00203514      -0.46784761
Al      23.22500000      15.12500000      13.84150931       0.14227342       0.01742314      -0.30991911
Al      21.20000000      17.15000000       5.00000000      -0.33019399       0.01398577      -0.72010498
Al      21.20000000      19.17500000       7.02500000      -0.29569624      -0.03484196       1.16746634
Al      23.22500000      17.15000000       7.02500000       0.37038401       0.01732676       1.03937122
Al      23.22500000      19.17500000       5.00000000       0.18999480       0.03553360      -0.27220271
Al      21.18467877      17.16314721       9.28608306      -0.00859129       0.00944926      -0.00432662
Al      21.15088674      19.14163875      11.56957549      -0.01634011      -0.00915818      -0.00278195
Al      23.26511344      17.16525060      11.56131818      -0.01580773       0.00270605      -0.00297746
Al      23.26746148      19.18498012       9.26850770      -0.01232758      -0.00117639      -0.00559774
Al      21.20000000      17.15000000      13.84150931      -0.25015846      -0.00740362      -0.24467979