299
Lattice="28.224999999999998 0.0 0.0 0.0 28.224999999999998 0.0 0.0 0.0 20.125" Properties=species:S:1:pos:R:3 energy=-16370.713919869795 pbc="T T T"
Al       5.00000000       5.00000000       5.00000000
Al       5.00000000       7.02500000       7.02500000
Al       7.02500000       5.00000000       7.02500000
Al       7.02500000       7.02500000       5.00000000
Al       7.01510266       6.96940526       9.10204577
Al       5.87594324       7.47638883      13.36487934
Al       7.87448779       6.03164635      11.70188544
Al       9.70717708       8.45285537      11.54707169
Al       5.00000000       5.00000000      15.85484098
Al       5.00000000       7.02500000      18.66693840
Al       7.02500000       5.00000000      18.66693840
Al       7.02500000       7.02500000      15.85484098
Al       5.00000000       9.05000000       5.00000000
Al       5.00000000      11.07500000       7.02500000
Al       7.02500000       9.05000000       7.02500000
Al       7.02500000      11.07500000       5.00000000
Al       6.67310020       9.00036404      11.01920113
Al       5.71049392      11.43136074      12.82418101
Al       7.81566890       9.65237870      13.50588327
Al       6.88577114      10.94866447       9.04489433
Al       5.00000000       9.05000000      15.85484098
Al       5.00000000      11.07500000      18.66693840
Al       7.02500000       9.05000000      18.66693840
Al       7.02500000      11.07500000      15.85484098
Al       5.00000000      13.10000000       5.00000000
Al       5.00000000      15.12500000       7.02500000
Al       7.02500000      13.10000000       7.02500000
Al       7.02500000      15.12500000       5.00000000
Al       6.33226140      13.31557994      10.29962612
Al       6.19500374      14.73980026      12.97899178
Al       8.21381424      12.74950492      13.27678964
Al       8.81279931      14.79874928      11.11302813
Al       5.00000000      13.10000000      15.85484098
Al       5.00000000      15.12500000      18.66693840
Al       7.02500000      13.10000000      18.66693840
Al       7.02500000      15.12500000      15.85484098
Al       5.00000000      17.15000000       5.00000000
Al       5.00000000      19.17500000       7.02500000
Al       7.02500000      17.15000000       7.02500000
Al       7.02500000      19.17500000       5.00000000
Al       6.46155332      16.17864910       9.77913823
Al       6.66080478      17.55229275      13.49051746
Al       9.09983352      15.61031291      13.65453813
Al       8.47796680      17.70764434      11.48205479
Al       5.00000000      17.15000000      15.85484098
Al       5.00000000      19.17500000      18.66693840
Al       7.02500000      17.15000000      18.66693840
Al       7.02500000      19.17500000      15.85484098
Al       5.00000000      21.20000000       5.00000000
Al       5.00000000      23.22500000       7.02500000
Al       7.02500000      21.20000000       7.02500000
Al       7.02500000      23.22500000       5.00000000
Al       7.00853441      19.18384631       9.40308680
Al       7.61191361      20.61308643      12.90619556
Al       9.50070683      18.72429320      13.77590518
Al       9.04115372      21.21646562       9.40308685
Al       5.00000000      21.20000000      15.85484098
Al       5.00000000      23.22500000      18.66693840
Al       7.02500000      21.20000000      18.66693840
Al       7.02500000      23.22500000      15.85484098
Al       9.05000000       5.00000000       5.00000000
Al       9.05000000       7.02500000       7.02500000
Al      11.07500000       5.00000000       7.02500000
Al      11.07500000       7.02500000       5.00000000
Al       9.92540147       6.04576900       9.57993738
Al       9.12060789       7.14250823      13.90618630
Al      11.23302462       5.83516643      12.33017104
Al      11.83030651       8.15207627       9.66817142
Al       9.05000000       5.00000000      15.85484098
Al       9.05000000       7.02500000      18.66693840
Al      11.07500000       5.00000000      18.66693840
Al      11.07500000       7.02500000      15.85484098
Al       9.05000000       9.05000000       5.00000000
Al       9.05000000      11.07500000       7.02500000
Al      11.07500000       9.05000000       7.02500000
Al      11.07500000      11.07500000       5.00000000
Al       8.99952606       9.01299320       9.03174739
Al       8.73503173      11.20237857      11.05936103
Al      10.52816694      10.69160097      13.14216129
Al      11.08082947      10.96122006       9.19544902
Al       9.05000000       9.05000000      15.85484098
Al       9.05000000      11.07500000      18.66693840
Al      11.07500000       9.05000000      18.66693840
Al      11.07500000      11.07500000      15.85484098
Al       9.05000000      13.10000000       5.00000000
Al       9.05000000      15.12500000       7.02500000
Al      11.07500000      13.10000000       7.02500000
Al      11.07500000      15.12500000       5.00000000
Al       9.07923923      13.08427634       9.01262174
Al      11.00276826      13.44917795      13.79045023
Al      11.22129104      12.92438719      11.18303850
Al      11.15790768      15.12576327       9.34642618
Al       9.05000000      13.10000000      15.85484098
Al       9.05000000      15.12500000      18.66693840
Al      11.07500000      13.10000000      18.66693840
Al      11.07500000      15.12500000      15.85484098
Al       9.05000000      17.15000000       5.00000000
Al       9.05000000      19.17500000       7.02500000
Al      11.07500000      17.15000000       7.02500000
Al      11.07500000      19.17500000       5.00000000
Al       9.16939750      17.07535352       9.01778747
Al      11.44111420      16.78388580      12.03375244
Al      13.44518368      14.77981642      12.87517952
Al      11.14964643      19.05560251       9.01778747
Al       9.05000000      17.15000000      15.85484098
Al       9.05000000      19.17500000      18.66693840
Al      11.07500000      17.15000000      18.66693840
Al      11.07500000      19.17500000      15.85484098
Al       9.05000000      21.20000000       5.00000000
Al       9.05000000      23.22500000       7.02500000
Al      11.07500000      21.20000000       7.02500000
Al      11.07500000      23.22500000       5.00000000
Al      10.51735577      19.74703324      11.48205485
Al      10.67270732      21.56419520      13.49051751
Al      12.61468720      19.12516637      13.65453815
Al      12.04635100      21.76344666       9.77913817
Al       9.05000000      21.20000000      15.85484098
Al       9.05000000      23.22500000      18.66693840
Al      11.07500000      21.20000000      18.66693840
Al      11.07500000      23.22500000      15.85484098
Al      13.10000000       5.00000000       5.00000000
Al      13.10000000       7.02500000       7.02500000
Al      15.12500000       5.00000000       7.02500000
Al      15.12500000       7.02500000       5.00000000
Al      13.14740250       5.55460833       9.63633488
Al      12.15839023       8.39531691      13.17087893
Al      14.31556006       6.35790816      12.69001354
Al      14.61317150       8.10099050       9.98626456
Al      13.10000000       5.00000000      15.85484098
Al      13.10000000       7.02500000      18.66693840
Al      15.12500000       5.00000000      18.66693840
Al      15.12500000       7.02500000      15.85484098
Al      13.10000000       9.05000000       5.00000000
Al      13.10000000      11.07500000       7.02500000
Al      15.12500000       9.05000000       7.02500000
Al      15.12500000      11.07500000       5.00000000
Al      13.11690915      10.36136709      11.07130335
Al      13.38572777      11.63799057      13.46843758
Al      14.97104966       9.11986770      13.65409918
Al      15.14208296      11.03470238       9.11270713
Al      13.10000000       9.05000000      15.85484098
Al      13.10000000      11.07500000      18.66693840
Al      15.12500000       9.05000000      18.66693840
Al      15.12500000      11.07500000      15.85484098
Al      13.10000000      13.10000000       5.00000000
Al      13.10000000      15.12500000       7.02500000
Al      15.12500000      13.10000000       7.02500000
Al      15.12500000      15.12500000       5.00000000
Al      13.15410766      13.08486196       9.24977293
Al      15.19024142      13.03475830      11.33777666
Al      15.14013793      15.07089229       9.24977303
Al      13.10000000      13.10000000      15.85484098
Al      13.10000000      15.12500000      18.66693840
Al      15.12500000      13.10000000      18.66693840
Al      15.12500000      15.12500000      15.85484098
Al      13.10000000      17.15000000       5.00000000
Al      13.10000000      19.17500000       7.02500000
Al      15.12500000      17.15000000       7.02500000
Al      15.12500000      19.17500000       5.00000000
Al      13.09923675      17.06709238       9.34642614
Al      14.77582229      17.22223165      13.79045034
Al      15.30061272      17.00370908      11.18303852
Al      15.14072365      19.14576082       9.01262174
Al      13.10000000      17.15000000      15.85484098
Al      13.10000000      19.17500000      18.66693840
Al      15.12500000      17.15000000      18.66693840
Al      15.12500000      19.17500000      15.85484098
Al      13.10000000      21.20000000       5.00000000
Al      13.10000000      23.22500000       7.02500000
Al      15.12500000      21.20000000       7.02500000
Al      15.12500000      23.22500000       5.00000000
Al      13.42625073      19.41220073      11.11302812
Al      13.48519982      22.02999618      12.97899180
Al      15.47549516      20.01118564      13.27678960
Al      14.90942015      21.89273858      10.29962621
Al      13.10000000      21.20000000      15.85484098
Al      13.10000000      23.22500000      18.66693840
Al      15.12500000      21.20000000      18.66693840
Al      15.12500000      23.22500000      15.85484098
Al      17.15000000       5.00000000       5.00000000
Al      17.15000000       7.02500000       7.02500000
Al      19.17500000       5.00000000       7.02500000
Al      19.17500000       7.02500000       5.00000000
Al      16.47177909       5.98756034       9.86468193
Al      17.08443284       7.46770910      12.56351412
Al      18.83033985       5.39546881      13.27883260
Al      17.23110529       8.92926020       9.09549160
Al      17.15000000       5.00000000      15.85484098
Al      17.15000000       7.02500000      18.66693840
Al      19.17500000       5.00000000      18.66693840
Al      19.17500000       7.02500000      15.85484098
Al      17.15000000       9.05000000       5.00000000
Al      17.15000000      11.07500000       7.02500000
Al      19.17500000       9.05000000       7.02500000
Al      19.17500000      11.07500000       5.00000000
Al      16.24978622      10.03277492      11.42881521
Al      16.38528947      11.83971001      13.57529608
Al      18.42727557       9.79772575      13.59055644
Al      18.19222262      11.97521335      11.42881464
Al      17.15000000       9.05000000      15.85484098
Al      17.15000000      11.07500000      18.66693840
Al      19.17500000       9.05000000      18.66693840
Al      19.17500000      11.07500000      15.85484098
Al      17.15000000      13.10000000       5.00000000
Al      17.15000000      15.12500000       7.02500000
Al      19.17500000      13.10000000       7.02500000
Al      19.17500000      15.12500000       5.00000000
Al      17.19029786      13.08291741       9.11270666
Al      16.58700965      14.83927182      13.46843765
Al      19.10513271      13.25394911      13.65409868
Al      17.86363242      15.10809085      11.07130322
Al      17.15000000      13.10000000      15.85484098
Al      17.15000000      15.12500000      18.66693840
Al      19.17500000      13.10000000      18.66693840
Al      19.17500000      15.12500000      15.85484098
Al      17.15000000      17.15000000       5.00000000
Al      17.15000000      19.17500000       7.02500000
Al      19.17500000      17.15000000       7.02500000
Al      19.17500000      19.17500000       5.00000000
Al      17.26377980      17.14417057       9.19544896
Al      17.02262150      19.48996813      11.05936105
Al      17.53339926      17.69683276      13.14216130
Al      19.21200680      19.22547385       9.03174742
Al      17.15000000      17.15000000      15.85484098
Al      17.15000000      19.17500000      18.66693840
Al      19.17500000      17.15000000      18.66693840
Al      19.17500000      19.17500000      15.85484098
Al      17.15000000      21.20000000       5.00000000
Al      17.15000000      23.22500000       7.02500000
Al      19.17500000      21.20000000       7.02500000
Al      19.17500000      23.22500000       5.00000000
Al      17.27633554      21.33922882       9.04489436
Al      16.79363933      22.51450603      12.82418112
Al      18.57262126      20.40933091      13.50588322
Al      19.22463597      21.55189961      11.01920114
Al      17.15000000      21.20000000      15.85484098
Al      17.15000000      23.22500000      18.66693840
Al      19.17500000      21.20000000      18.66693840
Al      19.17500000      23.22500000      15.85484098
Al      21.20000000       5.00000000       5.00000000
Al      21.20000000       7.02500000       7.02500000
Al      23.22500000       5.00000000       7.02500000
Al      23.22500000       7.02500000       5.00000000
Al      19.32038141       6.77855683       9.44018050
Al      19.19337606       9.03162135      11.11568796
Al      20.56546041       7.65953983      13.29403708
Al      21.44644296       8.90461918       9.44018169
Al      21.20000000       5.00000000      15.85484098
Al      21.20000000       7.02500000      18.66693840
Al      23.22500000       5.00000000      18.66693840
Al      23.22500000       7.02500000      15.85484098
Al      21.20000000       9.05000000       5.00000000
Al      21.20000000      11.07500000       7.02500000
Al      23.22500000       9.05000000       7.02500000
Al      23.22500000      11.07500000       5.00000000
Al      19.29574032      10.99389447       9.09549239
Al      20.75729019      11.14056711      12.56350779
Al      22.82953017       9.39466184      13.27883287
Al      22.23744122      11.75322195       9.86467952
Al      21.20000000       9.05000000      15.85484098
Al      21.20000000      11.07500000      18.66693840
Al      23.22500000       9.05000000      18.66693840
Al      23.22500000      11.07500000      15.85484098
Al      21.20000000      13.10000000       5.00000000
Al      21.20000000      15.12500000       7.02500000
Al      23.22500000      13.10000000       7.02500000
Al      23.22500000      15.12500000       5.00000000
Al      20.12400953      13.61182792       9.98626639
Al      19.82968316      16.06660886      13.17087858
Al      21.86709279      13.90943924      12.69001459
Al      22.67039144      15.07759744       9.63633505
Al      21.20000000      13.10000000      15.85484098
Al      21.20000000      15.12500000      18.66693840
Al      23.22500000      13.10000000      18.66693840
Al      23.22500000      15.12500000      15.85484098
Al      21.20000000      17.15000000       5.00000000
Al      21.20000000      19.17500000       7.02500000
Al      23.22500000      17.15000000       7.02500000
Al      23.22500000      19.17500000       5.00000000
Al      20.07292340      16.39469289       9.66817115
Al      21.08249171      19.10439199      13.90618627
Al      22.38983354      16.99197510      12.33017117
Al      22.17923074      18.29959820       9.57993742
Al      21.20000000      17.15000000      15.85484098
Al      21.20000000      19.17500000      18.66693840
Al      23.22500000      17.15000000      18.66693840
Al      23.22500000      19.17500000      15.85484098
Al      21.20000000      21.20000000       5.00000000
Al      21.20000000      23.22500000       7.02500000
Al      23.22500000      21.20000000       7.02500000
Al      23.22500000      23.22500000       5.00000000
Al      19.77214464      18.51782244      11.54707164
Al      20.74861112      22.34905667      13.36487932
Al      22.19335359      20.35051205      11.70188538
Al      21.25559475      21.20989729       9.10204576
Al      21.20000000      21.20000000      15.85484098
Al      21.20000000      23.22500000      18.66693840
Al      23.22500000      21.20000000      18.66693840
Al      23.22500000      23.22500000      15.85484098
