299
Lattice="28.224999999999998 0.0 0.0 0.0 28.224999999999998 0.0 0.0 0.0 20.125" Properties=species:S:1:pos:R:3:forces:R:3 energy=-16408.489970666105 pbc="T T T"
Al       5.00000000       5.00000000       5.00000000       0.39191643       0.39018998      -0.02532553
Al       5.00000000       7.02500000       7.02500000      -0.02359007       0.56960794       1.33354276
Al       7.02500000       5.00000000       7.02500000       0.61396172      -0.03472536       1.36262396
Al       7.02500000       7.02500000       5.00000000       0.32105265       0.32080796      -0.80652789
Al       5.74490329       5.72824420       9.69475560      -0.01660322      -0.01196795      -0.03527095
Al       5.40045491       7.36842159      12.33005286       0.01194709       0.00468521       0.00519639
Al       7.42706446       5.26859192      12.27696157       0.00745410      -0.00036298       0.00835274
Al       7.73376112       7.54790346       9.73853365       0.01854894      -0.00191581      -0.00110523
Al       5.00000000       5.00000000      14.92264289       1.07499635       1.04597808      -0.19341926
Al       5.00000000       7.02500000      17.46839800       0.31850763       0.48409728      -1.13703511
Al       7.02500000       5.00000000      17.46839800       0.48438122       0.31725635      -1.13701997
Al       7.02500000       7.02500000      14.92264289       0.53991133       0.45213106       0.10337103
Al       5.00000000       9.05000000       5.00000000      -0.16659178      -0.03657072      -0.43341857
Al       5.00000000      11.07500000       7.02500000      -0.19403022       0.08117018       1.73544514
Al       7.02500000       9.05000000       7.02500000       0.48254063       0.05195166       1.98689613
Al       7.02500000      11.07500000       5.00000000       0.32693879      -0.01078209      -0.85750398
Al       5.28243058       9.02044243       9.60125501       0.06038122       0.01949703      -0.00533156
Al       5.13966416      11.10118716      12.24512835       0.00704589       0.00506388       0.00913513
Al       7.35406087       9.35293577      12.24688643       0.02660186       0.00612072       0.00628019
Al       6.98011046      11.37663752       9.61207654       0.00666325       0.04777946       0.00584840
Al       5.00000000       9.05000000      14.92264289       0.28017079       0.14077019      -0.01821441
Al       5.00000000      11.07500000      17.46839800       0.20790474      -0.01423270      -1.04335598
Al       7.02500000       9.05000000      17.46839800       0.34888202      -0.03927455      -1.02286838
Al       7.02500000      11.07500000      14.92264289       0.34206418       0.05953775      -0.07017724
Al       5.00000000      13.10000000       5.00000000      -0.17782305       0.00216361      -0.42780450
Al       5.00000000      15.12500000       7.02500000      -0.09219976      -0.01605389       1.45199615
Al       7.02500000      13.10000000       7.02500000       0.35217285       0.06062104       1.89457862
Al       7.02500000      15.12500000       5.00000000       0.32918502       0.00631147      -0.85455189
Al       4.99469555      13.41088893       9.66257772       0.02918026       0.02553508       0.01086738
Al       5.12626784      15.33721476      12.33188684      -0.01317807       0.01052681       0.02803956
Al       7.05009613      13.26351003      12.30902963      -0.00108904       0.03108105       0.03023343
Al       7.50414673      14.80462966       9.66127847       0.03598462      -0.00991713      -0.00658377
Al       5.00000000      13.10000000      14.92264289       0.20703540       0.03971646      -0.19652917
Al       5.00000000      15.12500000      17.46839800       0.20749397       0.00738297      -1.05243721
Al       7.02500000      13.10000000      17.46839800       0.34945731      -0.00299264      -1.02680803
Al       7.02500000      15.12500000      14.92264289       0.43947344       0.03221778      -0.04267961
Al       5.00000000      17.15000000       5.00000000      -0.16451055       0.01113475      -0.44131294
Al       5.00000000      19.17500000       7.02500000      -0.13903312      -0.20517856       1.48653119
Al       7.02500000      17.15000000       7.02500000       0.42115421      -0.06667786       1.71026718
Al       7.02500000      19.17500000       5.00000000       0.32779743       0.04080399      -0.82258724
Al       5.44389595      16.85831802       9.61417460       0.04011516      -0.00698528       0.00004071
Al       5.50609166      18.85441557      12.18987965       0.00256296      -0.00067498       0.02483616
Al       7.55503864      16.85944136      12.20476630       0.01621961      -0.00746769       0.01368807
Al       7.10004338      19.18106313       9.52260249      -0.00959126       0.01504299      -0.00927544
Al       5.00000000      17.15000000      14.92264289       0.30292057       0.04358797       0.00774860
Al       5.00000000      19.17500000      17.46839800       0.21953712       0.03690033      -1.03027549
Al       7.02500000      17.15000000      17.46839800       0.34928892       0.01414490      -1.01893655
Al       7.02500000      19.17500000      14.92264289       0.37362646       0.01758336       0.01672038
Al       5.00000000      21.20000000       5.00000000      -0.07943922      -0.44712423      -0.28106450
Al       5.00000000      23.22500000       7.02500000       0.48992154      -0.48992154       1.01019585
Al       7.02500000      21.20000000       7.02500000       0.37994573      -0.37994573       1.59724909
Al       7.02500000      23.22500000       5.00000000       0.44712423       0.07943922      -0.28106450
Al       5.09958674      21.05351466       9.44981974       0.00351196       0.00543282      -0.01802392
Al       6.63819019      21.58680981      12.19205105      -0.00197842       0.00197842       0.01905599
Al       8.63439614      19.59060386      12.24304555       0.01385280      -0.01385280      -0.00411673
Al       7.17148534      23.12541326       9.44981974      -0.00543282      -0.00351196      -0.01802392
Al       5.00000000      21.20000000      14.92264289       0.36851051      -0.69105238       0.14575672
Al       5.00000000      23.22500000      17.46839800       0.84548134      -0.84548134      -0.91662347
Al       7.02500000      21.20000000      17.46839800       0.33980500      -0.33980500      -1.06323755
Al       7.02500000      23.22500000      14.92264289       0.69105238      -0.36851051       0.14575672
Al       9.05000000       5.00000000       5.00000000      -0.03450369      -0.17702492      -0.41154609
Al       9.05000000       7.02500000       7.02500000       0.01599396       0.37732953       1.79150248
Al      11.07500000       5.00000000       7.02500000       0.02770372      -0.06865455       1.61878451
Al      11.07500000       7.02500000       5.00000000      -0.01333515       0.32646351      -0.86315665
Al       9.14173310       5.08658631       9.54720991       0.02391958       0.03957966      -0.00228615
Al       9.26915877       7.33517284      12.41146346       0.01654343       0.01127798       0.00518051
Al      11.04085667       5.15722447      12.23835092      -0.00101016       0.00008742       0.01236175
Al      10.86139489       7.43882094       9.67570583       0.01751595       0.04810621       0.00482856
Al       9.05000000       5.00000000      14.92264289       0.11847395       0.25799240       0.01631836
Al       9.05000000       7.02500000      17.46839800      -0.03868655       0.34904174      -1.03042620
Al      11.07500000       5.00000000      17.46839800      -0.01602630       0.20903913      -1.04381757
Al      11.07500000       7.02500000      14.92264289       0.01313004       0.38901743       0.10014606
Al       9.05000000       9.05000000       5.00000000      -0.03681012      -0.03628100      -0.93259212
Al       9.05000000      11.07500000       7.02500000      -0.00034830       0.06721958       1.77547827
Al      11.07500000       9.05000000       7.02500000       0.02496142       0.06394849       2.04976947
Al      11.07500000      11.07500000       5.00000000      -0.00878882      -0.00870985      -0.91879451
Al       9.22272506       9.76209750       9.73321203       0.00677056       0.05691657      -0.01281406
Al       9.13970890      11.44444534      12.41208693      -0.00260024       0.04098071      -0.00604804
Al      11.08707415       9.43116016      12.28223782      -0.01161392       0.04244803       0.01189076
Al      11.69823894      10.88148066       9.65694192       0.04875942       0.00186538      -0.01747848
Al       9.05000000       9.05000000      14.92264289       0.01997640       0.18098464       0.11128020
Al       9.05000000      11.07500000      17.46839800      -0.04024602      -0.01257273      -0.97994988
Al      11.07500000       9.05000000      17.46839800      -0.01473672      -0.04040726      -0.97544604
Al      11.07500000      11.07500000      14.92264289       0.10308325       0.06451318       0.03920714
Al       9.05000000      13.10000000       5.00000000      -0.03539980      -0.00264092      -0.91999279
Al       9.05000000      15.12500000       7.02500000       0.02766239      -0.06179575       1.78668532
Al      11.07500000      13.10000000       7.02500000       0.01917994      -0.05021383       1.79230638
Al      11.07500000      15.12500000       5.00000000      -0.01004891       0.00479657      -0.89315913
Al       9.52628762      12.79014269       9.65297563       0.03944102       0.01125856       0.00673495
Al       9.49348247      14.81294064      12.26506712       0.02770315      -0.00838315       0.01460941
Al      11.56132009      12.87598823      12.21839472       0.02658834      -0.00911467       0.00820260
Al      10.93851172      15.27048661       9.54277081       0.00112254       0.01099900       0.00762146
Al       9.05000000      13.10000000      14.92264289       0.02292993       0.13624598       0.20659784
Al       9.05000000      15.12500000      17.46839800      -0.04134148       0.00571497      -0.96888514
Al      11.07500000      13.10000000      17.46839800      -0.01463289      -0.00451177      -0.97145067
Al      11.07500000      15.12500000      14.92264289       0.03037945       0.00510784      -0.01175423
Al       9.05000000      17.15000000       5.00000000      -0.03618724       0.01553763      -0.88666128
Al       9.05000000      19.17500000       7.02500000      -0.06251478       0.06251478       1.67231639
Al      11.07500000      17.15000000       7.02500000      -0.06126308       0.06126308       1.76417128
Al      11.07500000      19.17500000       5.00000000      -0.01553763       0.03618724      -0.88666128
Al       8.99410297      17.22752685       9.49022892      -0.01421020       0.00627235      -0.00019955
Al      10.63559565      17.58940435      12.17257842       0.01724824      -0.01724824      -0.01024526
Al      12.61904567      15.60595433      12.19802292       0.01383819      -0.01383819       0.00573364
Al      10.99747315      19.23089703       9.49022892      -0.00627235       0.01421020      -0.00019955
Al       9.05000000      17.15000000      14.92264289       0.01507088       0.03075319      -0.04404695
Al       9.05000000      19.17500000      17.46839800      -0.03977563       0.03977563      -0.96616604
Al      11.07500000      17.15000000      17.46839800      -0.01589396       0.01589396      -0.96499151
Al      11.07500000      19.17500000      14.92264289      -0.03075319      -0.01507088      -0.04404695
Al       9.05000000      21.20000000       5.00000000      -0.04080399      -0.32779743      -0.82258724
Al       9.05000000      23.22500000       7.02500000       0.20517856       0.13903312       1.48653119
Al      11.07500000      21.20000000       7.02500000       0.06667786      -0.42115421       1.71026718
Al      11.07500000      23.22500000       5.00000000      -0.01113475       0.16451055      -0.44131294
Al       9.04393687      21.12495662       9.52260249      -0.01504299       0.00959126      -0.00927544
Al       9.37058443      22.71890834      12.18987965       0.00067498      -0.00256296       0.02483616
Al      11.36555864      20.66996136      12.20476630       0.00746769      -0.01621961       0.01368807
Al      11.36668198      22.78110405       9.61417460       0.00698528      -0.04011516       0.00004071
Al       9.05000000      21.20000000      14.92264289      -0.01758336      -0.37362646       0.01672038
Al       9.05000000      23.22500000      17.46839800      -0.03690033      -0.21953712      -1.03027549
Al      11.07500000      21.20000000      17.46839800      -0.01414490      -0.34928892      -1.01893655
Al      11.07500000      23.22500000      14.92264289      -0.04358797      -0.30292057       0.00774860
Al      13.10000000       5.00000000       5.00000000      -0.00678119      -0.15871147      -0.46208293
Al      13.10000000       7.02500000       7.02500000      -0.00118492       0.42358141       1.81432062
Al      15.12500000       5.00000000       7.02500000       0.06750122      -0.19840071       1.75450315
Al      15.12500000       7.02500000       5.00000000       0.00574842       0.33067353      -0.84564484
Al      12.97098837       5.48916065       9.67723341       0.01160994      -0.00030507      -0.01637998
Al      12.94925653       7.31712371      12.37285913      -0.01883473       0.02571440       0.00381233
Al      15.10566247       5.39977160      12.23481956      -0.02249745       0.01431969       0.02368040
Al      15.53265477       6.89459702       9.56611993       0.02932455      -0.01022588      -0.01798935
Al      13.10000000       5.00000000      14.92264289      -0.03495564       0.28907343      -0.21051804
Al      13.10000000       7.02500000      17.46839800      -0.00499861       0.34951580      -1.02833039
Al      15.12500000       5.00000000      17.46839800       0.00356234       0.21318635      -1.03462923
Al      15.12500000       7.02500000      14.92264289       0.04616997       0.41810696       0.00934152
Al      13.10000000       9.05000000       5.00000000      -0.00045900      -0.03628013      -0.92021231
Al      13.10000000      11.07500000       7.02500000       0.07664898      -0.03325041       1.64537086
Al      15.12500000       9.05000000       7.02500000      -0.01533726      -0.02639935       1.86582807
Al      15.12500000      11.07500000       5.00000000       0.00250242      -0.00912290      -0.90136328
Al      13.45719795       8.73765241       9.66124860       0.03663028      -0.02184455       0.00853624
Al      13.52434900      10.87690733      12.32534378       0.01213000      -0.00108730      -0.01096477
Al      15.41258187       8.84420465      12.26826649       0.00317517      -0.00286225       0.00037265
Al      14.88950238      11.28908304       9.55648783      -0.01479371       0.02416214       0.00319719
Al      13.10000000       9.05000000      14.92264289       0.03242838       0.05308393       0.05279462
Al      13.10000000      11.07500000      17.46839800      -0.00398880      -0.01368769      -0.97509163
Al      15.12500000       9.05000000      17.46839800       0.00305162      -0.04013051      -0.97200008
Al      15.12500000      11.07500000      14.92264289       0.09580953      -0.00116313       0.07899568
Al      13.10000000      13.10000000       5.00000000      -0.00204491       0.00024248      -0.88590931
Al      13.10000000      15.12500000       7.02500000      -0.16826305       0.16826305       1.64320474
Al      15.12500000      13.10000000       7.02500000      -0.10409021       0.10409021       1.79839130
Al      15.12500000      15.12500000       5.00000000      -0.00024248       0.00204491      -0.88590931
Al      12.93837385      13.33735382       9.49858321       0.00121989       0.02299466       0.00223813
Al      14.61201018      13.61298982      12.15402396       0.01196589      -0.01196589      -0.00570295
Al      14.88764618      15.28662615       9.49858321      -0.02299466      -0.00121989       0.00223813
Al      13.10000000      13.10000000      14.92264289       0.04388040       0.01506054      -0.04199482
Al      13.10000000      15.12500000      17.46839800      -0.00469435       0.00469435      -0.96706177
Al      15.12500000      13.10000000      17.46839800       0.00353615      -0.00353615      -0.96799524
Al      15.12500000      15.12500000      14.92264289      -0.01506054      -0.04388040      -0.04199482
Al      13.10000000      17.15000000       5.00000000      -0.00479657       0.01004891      -0.89315913
Al      13.10000000      19.17500000       7.02500000       0.06179575      -0.02766239       1.78668532
Al      15.12500000      17.15000000       7.02500000       0.05021383      -0.01917994       1.79230638
Al      15.12500000      19.17500000       5.00000000       0.00264092       0.03539980      -0.91999279
Al      12.95451339      17.28648828       9.54277081      -0.01099900      -0.00112254       0.00762146
Al      13.41205936      18.73151753      12.26506712       0.00838315      -0.02770315       0.01460941
Al      15.34901177      16.66367991      12.21839472       0.00911467      -0.02658834       0.00820260
Al      15.43485731      18.69871238       9.65297563      -0.01125856      -0.03944102       0.00673495
Al      13.10000000      17.15000000      14.92264289      -0.00510784      -0.03037945      -0.01175423
Al      13.10000000      19.17500000      17.46839800      -0.00571497       0.04134148      -0.96888514
Al      15.12500000      17.15000000      17.46839800       0.00451177       0.01463289      -0.97145067
Al      15.12500000      19.17500000      14.92264289      -0.13624598      -0.02292993       0.20659784
Al      13.10000000      21.20000000       5.00000000      -0.00631147      -0.32918502      -0.85455189
Al      13.10000000      23.22500000       7.02500000       0.01605389       0.09219976       1.45199615
Al      15.12500000      21.20000000       7.02500000      -0.06062104      -0.35217285       1.89457862
Al      15.12500000      23.22500000       5.00000000      -0.00216361       0.17782305      -0.42780450
Al      13.42037034      20.72085327       9.66127847       0.00991713      -0.03598462      -0.00658377
Al      12.88778524      23.09873216      12.33188684      -0.01052681       0.01317807       0.02803956
Al      14.96148997      21.17490387      12.30902963      -0.03108105       0.00108904       0.03023343
Al      14.81411107      23.23030445       9.66257772      -0.02553508      -0.02918026       0.01086738
Al      13.10000000      21.20000000      14.92264289      -0.03221778      -0.43947344      -0.04267961
Al      13.10000000      23.22500000      17.46839800      -0.00738297      -0.20749397      -1.05243721
Al      15.12500000      21.20000000      17.46839800       0.00299264      -0.34945731      -1.02680803
Al      15.12500000      23.22500000      14.92264289      -0.03971646      -0.20703540      -0.19652917
Al      17.15000000       5.00000000       5.00000000       0.02263005      -0.17634738      -0.42805758
Al      17.15000000       7.02500000       7.02500000       0.09934305       0.28682813       1.66544444
Al      19.17500000       5.00000000       7.02500000      -0.09411636      -0.11846101       1.36531201
Al      19.17500000       7.02500000       5.00000000       0.03825985       0.32839806      -0.83729088
Al      17.51826390       4.89440853       9.72171725       0.01831359       0.01096835       0.01616949
Al      17.48330607       7.02418587      12.29725203      -0.00051216      -0.01199088       0.00233112
Al      19.40796091       5.02295736      12.38038999       0.01534737      -0.00971946       0.01355058
Al      18.87229084       7.37430805       9.54576449      -0.00883411       0.02556817      -0.01267141
Al      17.15000000       5.00000000      14.92264289       0.06260364       0.22951529      -0.23119946
Al      17.15000000       7.02500000      17.46839800       0.01356107       0.34882906      -1.02402579
Al      19.17500000       5.00000000      17.46839800       0.03929372       0.20613754      -1.06095580
Al      19.17500000       7.02500000      14.92264289       0.11683625       0.37582239       0.07721350
Al      17.15000000       9.05000000       5.00000000       0.01205083      -0.03782629      -0.90109442
Al      17.15000000      11.07500000       7.02500000      -0.12754399       0.12754399       1.79908918
Al      19.17500000       9.05000000       7.02500000      -0.15493301       0.15493301       1.69536509
Al      19.17500000      11.07500000       5.00000000       0.03782629      -0.01205083      -0.90109442
Al      16.89557747       9.34372022       9.57368701      -0.02449856       0.02869270      -0.00341480
Al      16.59186036      11.63313964      12.18394735       0.00484163      -0.00484163       0.01305388
Al      18.52889695       9.69610305      12.18710305      -0.00222628       0.00222628       0.00106487
Al      18.88127978      11.32942253       9.57368701      -0.02869270       0.02449856      -0.00341480
Al      17.15000000       9.05000000      14.92264289       0.01027661      -0.01161021      -0.01437542
Al      17.15000000      11.07500000      17.46839800       0.01319928      -0.01319928      -0.96471444
Al      19.17500000       9.05000000      17.46839800       0.03892973      -0.03892973      -0.96404347
Al      19.17500000      11.07500000      14.92264289       0.01161021      -0.01027661      -0.01437542
Al      17.15000000      13.10000000       5.00000000       0.00912290      -0.00250242      -0.90136328
Al      17.15000000      15.12500000       7.02500000       0.03325041      -0.07664898       1.64537086
Al      19.17500000      13.10000000       7.02500000       0.02639935       0.01533726       1.86582807
Al      19.17500000      15.12500000       5.00000000       0.03628013       0.00045900      -0.92021231
Al      16.93591696      13.33549762       9.55648783      -0.02416214       0.01479371       0.00319719
Al      17.34809267      14.70065100      12.32534378       0.00108730      -0.01213000      -0.01096477
Al      19.38079535      12.81241813      12.26826649       0.00286225      -0.00317517       0.00037265
Al      19.48734759      14.76780205       9.66124860       0.02184455      -0.03663028       0.00853624
Al      17.15000000      13.10000000      14.92264289       0.00116313      -0.09580953       0.07899568
Al      17.15000000      15.12500000      17.46839800       0.01368769       0.00398880      -0.97509163
Al      19.17500000      13.10000000      17.46839800       0.04013051      -0.00305162      -0.97200008
Al      19.17500000      15.12500000      14.92264289      -0.05308393      -0.03242838       0.05279462
Al      17.15000000      17.15000000       5.00000000       0.00870985       0.00878882      -0.91879451
Al      17.15000000      19.17500000       7.02500000      -0.06721958       0.00034830       1.77547827
Al      19.17500000      17.15000000       7.02500000      -0.06394849      -0.02496142       2.04976947
Al      19.17500000      19.17500000       5.00000000       0.03628100       0.03681012      -0.93259212
Al      17.34351934      16.52676106       9.65694192      -0.00186538      -0.04875942      -0.01747848
Al      16.78055466      19.08529110      12.41208693      -0.04098071       0.00260024      -0.00604804
Al      18.79383984      17.13792585      12.28223782      -0.04244803       0.01161392       0.01189076
Al      18.46290250      19.00227494       9.73321203      -0.05691657      -0.00677056      -0.01281406
Al      17.15000000      17.15000000      14.92264289      -0.06451318      -0.10308325       0.03920714
Al      17.15000000      19.17500000      17.46839800       0.01257273       0.04024602      -0.97994988
Al      19.17500000      17.15000000      17.46839800       0.04040726       0.01473672      -0.97544604
Al      19.17500000      19.17500000      14.92264289      -0.18098464      -0.01997640       0.11128020
Al      17.15000000      21.20000000       5.00000000       0.01078209      -0.32693879      -0.85750398
Al      17.15000000      23.22500000       7.02500000      -0.08117018       0.19403022       1.73544514
Al      19.17500000      21.20000000       7.02500000      -0.05195166      -0.48254063       1.98689613
Al      19.17500000      23.22500000       5.00000000       0.03657072       0.16659178      -0.43341857
Al      16.84836248      21.24488954       9.61207654      -0.04777946      -0.00666325       0.00584840
Al      17.12381284      23.08533584      12.24512835      -0.00506388      -0.00704589       0.00913513
Al      18.87206423      20.87093913      12.24688643      -0.00612072      -0.02660186       0.00628019
Al      19.20455757      22.94256942       9.60125501      -0.01949703      -0.06038122      -0.00533156
Al      17.15000000      21.20000000      14.92264289      -0.05953775      -0.34206418      -0.07017724
Al      17.15000000      23.22500000      17.46839800       0.01423270      -0.20790474      -1.04335598
Al      19.17500000      21.20000000      17.46839800       0.03927455      -0.34888202      -1.02286838
Al      19.17500000      23.22500000      14.92264289      -0.14077019      -0.28017079      -0.01821441
Al      21.20000000       5.00000000       5.00000000      -0.45511817      -0.06761677      -0.33480830
Al      21.20000000       7.02500000       7.02500000      -0.51712300       0.51712300       1.70814388
Al      23.22500000       5.00000000       7.02500000      -0.61286541       0.61286541       1.23602394
Al      23.22500000       7.02500000       5.00000000       0.06761677       0.45511817      -0.33480830
Al      20.81902736       5.35658599       9.58071005      -0.00941308      -0.00413277      -0.00796205
Al      20.47532971       7.74967029      12.15126133       0.00847510      -0.00847510      -0.01378285
Al      22.41005522       5.81494478      12.21287368       0.03057358      -0.03057358       0.02212849
Al      22.86841401       7.40597264       9.58071005       0.00413277       0.00941308      -0.00796205
Al      21.20000000       5.00000000      14.92264289      -0.49372658       0.34991866       0.31845075
Al      21.20000000       7.02500000      17.46839800      -0.34099546       0.34099546      -1.06214792
Al      23.22500000       5.00000000      17.46839800      -0.83263206       0.83263206      -0.96805697
Al      23.22500000       7.02500000      14.92264289      -0.34991866       0.49372658       0.31845075
Al      21.20000000       9.05000000       5.00000000      -0.32839806      -0.03825985      -0.83729088
Al      21.20000000      11.07500000       7.02500000      -0.28682813      -0.09934305       1.66544444
Al      23.22500000       9.05000000       7.02500000       0.11846101       0.09411636       1.36531201
Al      23.22500000      11.07500000       5.00000000       0.17634738      -0.02263005      -0.42805758
Al      20.85069195       9.35270916       9.54576449      -0.02556817       0.00883411      -0.01267141
Al      21.20081413      10.74169393      12.29725203       0.01199088       0.00051216       0.00233112
Al      23.20204264       8.81703909      12.38038999       0.00971946      -0.01534737       0.01355058
Al      23.33059147      10.70673610       9.72171725      -0.01096835      -0.01831359       0.01616949
Al      21.20000000       9.05000000      14.92264289      -0.37582239      -0.11683625       0.07721350
Al      21.20000000      11.07500000      17.46839800      -0.34882906      -0.01356107      -1.02402579
Al      23.22500000       9.05000000      17.46839800      -0.20613754      -0.03929372      -1.06095580
Al      23.22500000      11.07500000      14.92264289      -0.22951529      -0.06260364      -0.23119946
Al      21.20000000      13.10000000       5.00000000      -0.33067353      -0.00574842      -0.84564484
Al      21.20000000      15.12500000       7.02500000      -0.42358141       0.00118492       1.81432062
Al      23.22500000      13.10000000       7.02500000       0.19840071      -0.06750122       1.75450315
Al      23.22500000      15.12500000       5.00000000       0.15871147       0.00678119      -0.46208293
Al      21.33040298      12.69234523       9.56611993       0.01022588      -0.02932455      -0.01798935
Al      20.90787629      15.27574347      12.37285913      -0.02571440       0.01883473       0.00381233
Al      22.82522840      13.11933753      12.23481956      -0.01431969       0.02249745       0.02368040
Al      22.73583935      15.25401163       9.67723341       0.00030507      -0.01160994      -0.01637998
Al      21.20000000      13.10000000      14.92264289      -0.41810696      -0.04616997       0.00934152
Al      21.20000000      15.12500000      17.46839800      -0.34951580       0.00499861      -1.02833039
Al      23.22500000      13.10000000      17.46839800      -0.21318635      -0.00356234      -1.03462923
Al      23.22500000      15.12500000      14.92264289      -0.28907343       0.03495564      -0.21051804
Al      21.20000000      17.15000000       5.00000000      -0.32646351       0.01333515      -0.86315665
Al      21.20000000      19.17500000       7.02500000      -0.37732953      -0.01599396       1.79150248
Al      23.22500000      17.15000000       7.02500000       0.06865455      -0.02770372       1.61878451
Al      23.22500000      19.17500000       5.00000000       0.17702492       0.03450369      -0.41154609
Al      20.78617906      17.36360511       9.67570583      -0.04810621      -0.01751595       0.00482856
Al      20.88982716      18.95584123      12.41146346      -0.01127798      -0.01654343       0.00518051
Al      23.06777553      17.18414333      12.23835092      -0.00008742       0.00101016       0.01236175
Al      23.13841369      19.08326690       9.54720991      -0.03957966      -0.02391958      -0.00228615
Al      21.20000000      17.15000000      14.92264289      -0.38901743      -0.01313004       0.10014606