299
Lattice="28.224999999999998 0.0 0.0 0.0 28.224999999999998 0.0 0.0 0.0 20.125" Properties=species:S:1:pos:R:3:forces:R:3 energy=-16438.313507689425 pbc="T T T"
Al       5.00000000       5.00000000       5.00000000       0.37490478       0.37827686       0.08933696
Al       5.00000000       7.02500000       7.02500000      -0.06069241       0.51345587       1.23577853
Al       7.02500000       5.00000000       7.02500000       0.51724993      -0.06711498       1.23585893
Al       7.02500000       7.02500000       5.00000000       0.32157089       0.32674395      -0.72204757
Al       5.43286333       5.42777380       9.54111386       0.02108752       0.01254570      -0.00502027
Al       5.20913778       7.23538851      11.97173302       0.00124548       0.00803612       0.01256793
Al       7.26535531       5.16007960      11.96957677      -0.00521005       0.00242412      -0.00044258
Al       7.37768476       7.33444632       9.49495766       0.00387219       0.01469485       0.00287410
Al       5.00000000       5.00000000      14.40625766       0.89338451       0.87751946      -0.36721449
Al       5.00000000       7.02500000      16.80447413       0.24885475       0.47899557      -0.90753998
Al       7.02500000       5.00000000      16.80447413       0.47271361       0.25151997      -0.90858592
Al       7.02500000       7.02500000      14.40625766       0.46537231       0.45698806      -0.02940746
Al       5.00000000       9.05000000       5.00000000      -0.17332306      -0.03417037      -0.33778292
Al       5.00000000      11.07500000       7.02500000      -0.25374414       0.02232647       1.44767361
Al       7.02500000       9.05000000       7.02500000       0.38224309       0.08252663       1.59013349
Al       7.02500000      11.07500000       5.00000000       0.32459964      -0.01154081      -0.77076455
Al       5.07836201       9.03412364       9.43321389       0.00237952      -0.00650175       0.01988397
Al       5.04230929      11.09574891      11.91271453      -0.00023217      -0.00882300       0.01021562
Al       7.18233999       9.21816726      11.93782805      -0.00922536       0.00685958       0.00386265
Al       7.04436724      11.13526018       9.44953119      -0.02173223       0.00691311       0.00483587
Al       5.00000000       9.05000000      14.40625766       0.13177319       0.13586799      -0.11513767
Al       5.00000000      11.07500000      16.80447413       0.14300530      -0.01335505      -0.81224773
Al       7.02500000       9.05000000      16.80447413       0.33824402      -0.03561506      -0.70602151
Al       7.02500000      11.07500000      14.40625766       0.31931056       0.05831242      -0.15320293
Al       5.00000000      13.10000000       5.00000000      -0.17648173      -0.00317771      -0.33833967
Al       5.00000000      15.12500000       7.02500000      -0.16072284      -0.02154563       1.36605089
Al       7.02500000      13.10000000       7.02500000       0.36518143      -0.01419569       1.65417539
Al       7.02500000      15.12500000       5.00000000       0.32707855       0.00142969      -0.77087064
Al       5.02817750      13.16771849       9.45327784       0.00045516      -0.00341926       0.00988359
Al       5.09342209      15.14220678      11.94630893       0.01456530       0.02881388      -0.00447767
Al       7.10532689      13.10847743      11.93976076      -0.02223075       0.00423934       0.00927664
Al       7.23304142      15.00577226       9.46873891      -0.00405151      -0.00354630      -0.01481382
Al       5.00000000      13.10000000      14.40625766       0.10238610      -0.00710025      -0.26572856
Al       5.00000000      15.12500000      16.80447413       0.14706830       0.00233629      -0.81489102
Al       7.02500000      13.10000000      16.80447413       0.34215315      -0.00177292      -0.70931200
Al       7.02500000      15.12500000      14.40625766       0.41964737      -0.04393838      -0.16500289
Al       5.00000000      17.15000000       5.00000000      -0.16998326       0.00732327      -0.35266959
Al       5.00000000      19.17500000       7.02500000      -0.21228059      -0.17363773       1.29832934
Al       7.02500000      17.15000000       7.02500000       0.37375852      -0.07370218       1.56901161
Al       7.02500000      19.17500000       5.00000000       0.33040412       0.03300390      -0.76438378
Al       5.18728279      17.03972131       9.46003704      -0.00551867      -0.00506449      -0.03855248
Al       5.25873237      18.98322657      11.90725180       0.01592653      -0.03388161      -0.00478693
Al       7.29710735      16.99572877      11.92461862       0.01830201      -0.01743605       0.00520287
Al       7.10853347      19.14939976       9.41878775       0.01011696      -0.01888779      -0.00581716
Al       5.00000000      17.15000000      14.40625766       0.18140697      -0.05676806      -0.18417898
Al       5.00000000      19.17500000      16.80447413       0.15809894       0.03092474      -0.79745840
Al       7.02500000      17.15000000      16.80447413       0.34611822       0.01001678      -0.70416937
Al       7.02500000      19.17500000      14.40625766       0.33205692       0.01011796      -0.06790610
Al       5.00000000      21.20000000       5.00000000      -0.07903234      -0.45351676      -0.23319390
Al       5.00000000      23.22500000       7.02500000       0.46021849      -0.46021849       0.95296404
Al       7.02500000      21.20000000       7.02500000       0.37604450      -0.37604450       1.44782709
Al       7.02500000      23.22500000       5.00000000       0.45351676       0.07903234      -0.23319390
Al       5.08622027      21.05103508       9.39150586      -0.00413246       0.00171408      -0.01335156
Al       6.81832724      21.40667276      11.93144446       0.00906394      -0.00906394      -0.04180313
Al       8.81321443      19.41178557      11.93628705       0.01130758      -0.01130758       0.01654672
Al       7.17396492      23.13877973       9.39150586      -0.00171408       0.00413246      -0.01335156
Al       5.00000000      21.20000000      14.40625766       0.16272142      -0.63855216      -0.03567002
Al       5.00000000      23.22500000      16.80447413       0.77914905      -0.77914905      -0.71185497
Al       7.02500000      21.20000000      16.80447413       0.34134543      -0.34134543      -0.74315991
Al       7.02500000      23.22500000      14.40625766       0.63855216      -0.16272142      -0.03567002
Al       9.05000000       5.00000000       5.00000000      -0.04016292      -0.17440149      -0.33616577
Al       9.05000000       7.02500000       7.02500000       0.04126234       0.39082904       1.51971132
Al      11.07500000       5.00000000       7.02500000      -0.00726564      -0.19212801       1.43336803
Al      11.07500000       7.02500000       5.00000000      -0.02162398       0.32621298      -0.77872045
Al       9.05309624       5.02950494       9.42373287      -0.00770979       0.00499593       0.01108837
Al       9.15228189       7.22665385      11.96763679      -0.01280400      -0.00517572       0.00056818
Al      11.04022682       5.10266892      11.91201877      -0.00660964      -0.01460847       0.01595196
Al      10.98669658       7.16708837       9.46461760      -0.02607678       0.00049110      -0.01048546
Al       9.05000000       5.00000000      14.40625766       0.11540953       0.13677681      -0.06489628
Al       9.05000000       7.02500000      16.80447413      -0.04554832       0.34516819      -0.70534495
Al      11.07500000       5.00000000      16.80447413      -0.01855015       0.14106090      -0.80504706
Al      11.07500000       7.02500000      14.40625766       0.01013645       0.37460092      -0.13844404
Al       9.05000000       9.05000000       5.00000000      -0.04662177      -0.03675970      -0.83731319
Al       9.05000000      11.07500000       7.02500000       0.03776333       0.05912277       1.51553721
Al      11.07500000       9.05000000       7.02500000       0.06331144       0.02109689       1.63409936
Al      11.07500000      11.07500000       5.00000000      -0.02606420      -0.01291996      -0.83595788
Al       9.19381204       9.34157874       9.47040822      -0.01301452       0.03400923       0.02702460
Al       9.14972996      11.18084645      11.97095336      -0.02491133       0.02505880      -0.01267325
Al      11.14110769       9.18554511      11.94555474      -0.03427782      -0.00185810      -0.00619852
Al      11.33814140      11.04844557       9.46807921      -0.01032470       0.02453648       0.00902851
Al       9.05000000       9.05000000      14.40625766       0.02979720       0.09630807      -0.04824372
Al       9.05000000      11.07500000      16.80447413      -0.04931767      -0.00992934      -0.65124632
Al      11.07500000       9.05000000      16.80447413      -0.02268923      -0.03941657      -0.64686481
Al      11.07500000      11.07500000      14.40625766       0.09491169       0.01314528      -0.09375178
Al       9.05000000      13.10000000       5.00000000      -0.04864312      -0.00296953      -0.83402097
Al       9.05000000      15.12500000       7.02500000       0.00505849      -0.05411485       1.57477619
Al      11.07500000      13.10000000       7.02500000       0.00212493      -0.01962052       1.57975091
Al      11.07500000      15.12500000       5.00000000      -0.02335381       0.00877197      -0.82543338
Al       9.22170022      12.96324222       9.46023523      -0.01998276       0.00571314       0.00352060
Al       9.26938821      14.97219668      11.92890043      -0.00218921      -0.00178816       0.01883401
Al      11.30351015      12.99246481      11.93422235       0.00342491       0.02453481      -0.00396673
Al      11.01709282      15.18578779       9.42171671      -0.00955031      -0.00791210      -0.00446271
Al       9.05000000      13.10000000      14.40625766       0.05448815       0.00610793      -0.10225693
Al       9.05000000      15.12500000      16.80447413      -0.04695541       0.00621076      -0.65030036
Al      11.07500000      13.10000000      16.80447413      -0.02587600       0.00018211      -0.64922304
Al      11.07500000      15.12500000      14.40625766      -0.03869306       0.04231138      -0.08945181
Al       9.05000000      17.15000000       5.00000000      -0.04139905       0.01341659      -0.82469662
Al       9.05000000      19.17500000       7.02500000      -0.00750223       0.00750223       1.46056365
Al      11.07500000      17.15000000       7.02500000      -0.04635444       0.04635444       1.54118400
Al      11.07500000      19.17500000       5.00000000      -0.01341659       0.04139905      -0.82469662
Al       9.04748828      17.17675289       9.41678547       0.00245848      -0.01093129      -0.01016748
Al      10.81202286      17.41297714      11.91516262      -0.00486640       0.00486640      -0.00498712
Al      12.79907763      15.42592237      11.91200804      -0.00738465       0.00738465      -0.01891850
Al      11.04824711      19.17751172       9.41678547       0.01093129      -0.00245848      -0.01016748
Al       9.05000000      17.15000000      14.40625766      -0.01881112       0.02687784      -0.07276866
Al       9.05000000      19.17500000      16.80447413      -0.03776427       0.03776427      -0.64600067
Al      11.07500000      17.15000000      16.80447413      -0.01983154       0.01983154      -0.64663419
Al      11.07500000      19.17500000      14.40625766      -0.02687784       0.01881112      -0.07276866
Al       9.05000000      21.20000000       5.00000000      -0.03300390      -0.33040412      -0.76438378
Al       9.05000000      23.22500000       7.02500000       0.17363773       0.21228059       1.29832934
Al      11.07500000      21.20000000       7.02500000       0.07370218      -0.37375852       1.56901161
Al      11.07500000      23.22500000       5.00000000      -0.00732327       0.16998326      -0.35266959
Al       9.07560024      21.11646653       9.41878775       0.01888779      -0.01011696      -0.00581716
Al       9.24177343      22.96626763      11.90725180       0.03388161      -0.01592653      -0.00478693
Al      11.22927123      20.92789265      11.92461862       0.01743605      -0.01830201       0.00520287
Al      11.18527869      23.03771721       9.46003704       0.00506449       0.00551867      -0.03855248
Al       9.05000000      21.20000000      14.40625766      -0.01011796      -0.33205692      -0.06790610
Al       9.05000000      23.22500000      16.80447413      -0.03092474      -0.15809894      -0.79745840
Al      11.07500000      21.20000000      16.80447413      -0.01001678      -0.34611822      -0.70416937
Al      11.07500000      23.22500000      14.40625766       0.05676806      -0.18140697      -0.18417898
Al      13.10000000       5.00000000       5.00000000      -0.00915899      -0.17557845      -0.35900362
Al      13.10000000       7.02500000       7.02500000       0.00069274       0.33621033       1.61926090
Al      15.12500000       5.00000000       7.02500000       0.05153950      -0.26557672       1.51326400
Al      15.12500000       7.02500000       5.00000000      -0.00012431       0.32106299      -0.77659220
Al      13.07061869       5.17657243       9.46917415      -0.01322888       0.00672624       0.00531091
Al      13.08093322       7.14584347      11.95372088      -0.01432240      -0.00556535       0.00992970
Al      15.14879023       5.15804417      11.91645921       0.01878075      -0.01143286       0.00849177
Al      15.27605757       7.02551027       9.44903368       0.00469256      -0.01519039       0.00462894
Al      13.10000000       5.00000000      14.40625766      -0.01313978       0.11579479      -0.31008517
Al      13.10000000       7.02500000      16.80447413      -0.00768504       0.34034542      -0.70285972
Al      15.12500000       5.00000000      16.80447413       0.00797818       0.13784399      -0.80403187
Al      15.12500000       7.02500000      14.40625766       0.06229194       0.34153787      -0.16315604
Al      13.10000000       9.05000000       5.00000000      -0.01372961      -0.04371610      -0.83919118
Al      13.10000000      11.07500000       7.02500000       0.01712719      -0.02733282       1.49621767
Al      15.12500000       9.05000000       7.02500000      -0.05144880      -0.01661287       1.53720148
Al      15.12500000      11.07500000       5.00000000      -0.00365707      -0.01352977      -0.83013842
Al      13.22008209       8.94527315       9.45812828      -0.02707917      -0.01225811      -0.00509098
Al      13.31330096      10.99401217      11.94691724      -0.01670777      -0.00326393       0.00101806
Al      15.27880675       8.97377053      11.93362803       0.01183893      -0.01327420       0.01665578
Al      14.99702288      11.19271775       9.41018574      -0.00769008      -0.01323229      -0.00041059
Al      13.10000000       9.05000000      14.40625766       0.06752869      -0.01233526      -0.11794911
Al      13.10000000      11.07500000      16.80447413      -0.01328545      -0.01337786      -0.64690884
Al      15.12500000       9.05000000      16.80447413       0.00195040      -0.04599749      -0.64351607
Al      15.12500000      11.07500000      14.40625766      -0.01229534       0.03242930      -0.04576094
Al      13.10000000      13.10000000       5.00000000      -0.01482240       0.00160493      -0.82233928
Al      13.10000000      15.12500000       7.02500000      -0.10763186       0.10763186       1.48989018
Al      15.12500000      13.10000000       7.02500000      -0.09521413       0.09521413       1.51038557
Al      15.12500000      15.12500000       5.00000000      -0.00160493       0.01482240      -0.82233928
Al      13.03666758      13.22869935       9.41247116      -0.00611363       0.00134935      -0.00589124
Al      14.78020738      13.44479262      11.89497183      -0.02498540       0.02498540       0.02285633
Al      14.99630065      15.18833242       9.41247116      -0.00134935       0.00611363      -0.00589124
Al      13.10000000      13.10000000      14.40625766      -0.01895742       0.04949612      -0.06240904
Al      13.10000000      15.12500000      16.80447413      -0.01300720       0.01300720      -0.64755510
Al      15.12500000      13.10000000      16.80447413      -0.00160184       0.00160184      -0.64314530
Al      15.12500000      15.12500000      14.40625766      -0.04949612       0.01895742      -0.06240904
Al      13.10000000      17.15000000       5.00000000      -0.00877197       0.02335381      -0.82543338
Al      13.10000000      19.17500000       7.02500000       0.05411485      -0.00505849       1.57477619
Al      15.12500000      17.15000000       7.02500000       0.01962052      -0.00212493       1.57975091
Al      15.12500000      19.17500000       5.00000000       0.00296953       0.04864312      -0.83402097
Al      13.03921221      17.20790718       9.42171671       0.00791210       0.00955031      -0.00446271
Al      13.25280332      18.95561179      11.92890043       0.00178816       0.00218921       0.01883401
Al      15.23253519      16.92148985      11.93422235      -0.02453481      -0.00342491      -0.00396673
Al      15.26175778      19.00329978       9.46023523      -0.00571314       0.01998276       0.00352060
Al      13.10000000      17.15000000      14.40625766      -0.04231138       0.03869306      -0.08945181
Al      13.10000000      19.17500000      16.80447413      -0.00621076       0.04695541      -0.65030036
Al      15.12500000      17.15000000      16.80447413      -0.00018211       0.02587600      -0.64922304
Al      15.12500000      19.17500000      14.40625766      -0.00610793      -0.05448815      -0.10225693
Al      13.10000000      21.20000000       5.00000000      -0.00142969      -0.32707855      -0.77087064
Al      13.10000000      23.22500000       7.02500000       0.02154563       0.16072284       1.36605089
Al      15.12500000      21.20000000       7.02500000       0.01419569      -0.36518143       1.65417539
Al      15.12500000      23.22500000       5.00000000       0.00317771       0.17648173      -0.33833967
Al      13.21922774      20.99195858       9.46873891       0.00354630       0.00405151      -0.01481382
Al      13.08279322      23.13157791      11.94630893      -0.02881388      -0.01456530      -0.00447767
Al      15.11652257      21.11967311      11.93976076      -0.00423934       0.02223075       0.00927664
Al      15.05728151      23.19682250       9.45327784       0.00341926      -0.00045516       0.00988359
Al      13.10000000      21.20000000      14.40625766       0.04393838      -0.41964737      -0.16500289
Al      13.10000000      23.22500000      16.80447413      -0.00233629      -0.14706830      -0.81489102
Al      15.12500000      21.20000000      16.80447413       0.00177292      -0.34215315      -0.70931200
Al      15.12500000      23.22500000      14.40625766       0.00710025      -0.10238610      -0.26572856
Al      17.15000000       5.00000000       5.00000000       0.02246826      -0.18940509      -0.34218345
Al      17.15000000       7.02500000       7.02500000      -0.02613009       0.28395725       1.49500729
Al      19.17500000       5.00000000       7.02500000      -0.15990705      -0.20441362       1.07082370
Al      19.17500000       7.02500000       5.00000000       0.04710140       0.31663570      -0.76059706
Al      17.26736979       4.97388532       9.47237402       0.01543499      -0.01995270       0.01546045
Al      17.31774810       7.05125050      11.94072874       0.01826694      -0.02291061       0.01402262
Al      19.30877306       5.03739598      11.95108719      -0.01663338       0.00584886       0.02565318
Al      18.98557897       7.24468956       9.39653274       0.03827045      -0.03193817       0.02209969
Al      17.15000000       5.00000000      14.40625766       0.07962385       0.08229511      -0.29594959
Al      17.15000000       7.02500000      16.80447413       0.02232912       0.33415717      -0.70271260
Al      19.17500000       5.00000000      16.80447413       0.04789590       0.14099850      -0.82216334
Al      19.17500000       7.02500000      14.40625766       0.01522591       0.36393211       0.01825299
Al      17.15000000       9.05000000       5.00000000       0.01460699      -0.04668689      -0.83081065
Al      17.15000000      11.07500000       7.02500000      -0.13208748       0.13208748       1.46044184
Al      19.17500000       9.05000000       7.02500000      -0.13079863       0.13079863       1.38358549
Al      19.17500000      11.07500000       5.00000000       0.04668689      -0.01460699      -0.83081065
Al      17.00606944       9.22597492       9.40575001       0.03302845      -0.03613416       0.01509803
Al      16.74861752      11.47638248      11.88210679       0.01714954      -0.01714954       0.00809886
Al      18.68988883       9.53511117      11.86936441       0.03685920      -0.03685920       0.03101665
Al      18.99902508      11.21893056       9.40575001       0.03613416      -0.03302845       0.01509803
Al      17.15000000       9.05000000      14.40625766      -0.03754555       0.02587843      -0.04168725
Al      17.15000000      11.07500000      16.80447413       0.01649721      -0.01649721      -0.63576549
Al      19.17500000       9.05000000      16.80447413       0.05066308      -0.05066308      -0.63950458
Al      19.17500000      11.07500000      14.40625766      -0.02587843       0.03754555      -0.04168725
Al      17.15000000      13.10000000       5.00000000       0.01352977       0.00365707      -0.83013842
Al      17.15000000      15.12500000       7.02500000       0.02733282      -0.01712719       1.49621767
Al      19.17500000      13.10000000       7.02500000       0.01661287       0.05144880       1.53720148
Al      19.17500000      15.12500000       5.00000000       0.04371610       0.01372961      -0.83919118
Al      17.03228225      13.22797712       9.41018574       0.01323229       0.00769008      -0.00041059
Al      17.23098783      14.91169904      11.94691724       0.00326393       0.01670777       0.00101806
Al      19.25122947      12.94619325      11.93362803       0.01327420      -0.01183893       0.01665578
Al      19.27972685      15.00491791       9.45812828       0.01225811       0.02707917      -0.00509098
Al      17.15000000      13.10000000      14.40625766      -0.03242930       0.01229534      -0.04576094
Al      17.15000000      15.12500000      16.80447413       0.01337786       0.01328545      -0.64690884
Al      19.17500000      13.10000000      16.80447413       0.04599749      -0.00195040      -0.64351607
Al      19.17500000      15.12500000      14.40625766       0.01233526      -0.06752869      -0.11794911
Al      17.15000000      17.15000000       5.00000000       0.01291996       0.02606420      -0.83595788
Al      17.15000000      19.17500000       7.02500000      -0.05912277      -0.03776333       1.51553721
Al      19.17500000      17.15000000       7.02500000      -0.02109689      -0.06331144       1.63409936
Al      19.17500000      19.17500000       5.00000000       0.03675970       0.04662177      -0.83731319
Al      17.17655443      16.88685860       9.46807921      -0.02453648       0.01032470       0.00902851
Al      17.04415355      19.07527004      11.97095336      -0.02505880       0.02491133      -0.01267325
Al      19.03945489      17.08389231      11.94555474       0.00185810       0.03427782      -0.00619852
Al      18.88342126      19.03118796       9.47040822      -0.03400923       0.01301452       0.02702460
Al      17.15000000      17.15000000      14.40625766      -0.01314528      -0.09491169      -0.09375178
Al      17.15000000      19.17500000      16.80447413       0.00992934       0.04931767      -0.65124632
Al      19.17500000      17.15000000      16.80447413       0.03941657       0.02268923      -0.64686481
Al      19.17500000      19.17500000      14.40625766      -0.09630807      -0.02979720      -0.04824372
Al      17.15000000      21.20000000       5.00000000       0.01154081      -0.32459964      -0.77076455
Al      17.15000000      23.22500000       7.02500000      -0.02232647       0.25374414       1.44767361
Al      19.17500000      21.20000000       7.02500000      -0.08252663      -0.38224309       1.59013349
Al      19.17500000      23.22500000       5.00000000       0.03417037       0.17332306      -0.33778292
Al      17.08973982      21.18063276       9.44953119      -0.00691311       0.02173223       0.00483587
Al      17.12925109      23.18269071      11.91271453       0.00882300       0.00023217       0.01021562
Al      19.00683274      21.04266001      11.93782805      -0.00685958       0.00922536       0.00386265
Al      19.19087636      23.14663799       9.43321389       0.00650175      -0.00237952       0.01988397
Al      17.15000000      21.20000000      14.40625766      -0.05831242      -0.31931056      -0.15320293
Al      17.15000000      23.22500000      16.80447413       0.01335505      -0.14300530      -0.81224773
Al      19.17500000      21.20000000      16.80447413       0.03561506      -0.33824402      -0.70602151
Al      19.17500000      23.22500000      14.40625766      -0.13586799      -0.13177319      -0.11513767
Al      21.20000000       5.00000000       5.00000000      -0.45160731      -0.07631752      -0.23364304
Al      21.20000000       7.02500000       7.02500000      -0.52170896       0.52170896       1.31907940
Al      23.22500000       5.00000000       7.02500000      -0.50661726       0.50661726       1.16786276
Al      23.22500000       7.02500000       5.00000000       0.07631752       0.45160731      -0.23364304
Al      20.93638888       5.21758844       9.36945370       0.00591070      -0.00562813       0.01829788
Al      20.61532381       7.60967619      11.85811638       0.01604083      -0.01604083       0.02567828
Al      22.53321313       5.69178687      11.83963458       0.01155863      -0.01155863       0.00358144
Al      23.00741156       7.28861112       9.36945370       0.00562813      -0.00591070       0.01829788
Al      21.20000000       5.00000000      14.40625766      -0.56233384       0.27898123       0.16758691
Al      21.20000000       7.02500000      16.80447413      -0.32958838       0.32958838      -0.75508353
Al      23.22500000       5.00000000      16.80447413      -0.76130913       0.76130913      -0.81998169
Al      23.22500000       7.02500000      14.40625766      -0.27898123       0.56233384       0.16758691
Al      21.20000000       9.05000000       5.00000000      -0.31663570      -0.04710140      -0.76059706
Al      21.20000000      11.07500000       7.02500000      -0.28395725       0.02613009       1.49500729
Al      23.22500000       9.05000000       7.02500000       0.20441362       0.15990705       1.07082370
Al      23.22500000      11.07500000       5.00000000       0.18940509      -0.02246826      -0.34218345
Al      20.98031044       9.23942103       9.39653274       0.03193817      -0.03827045       0.02209969
Al      21.17374950      10.90725190      11.94072874       0.02291061      -0.01826694       0.01402262
Al      23.18760402       8.91622694      11.95108719      -0.00584886       0.01663338       0.02565318
Al      23.25111468      10.95763021       9.47237402       0.01995270      -0.01543499       0.01546045
Al      21.20000000       9.05000000      14.40625766      -0.36393211      -0.01522591       0.01825299
Al      21.20000000      11.07500000      16.80447413      -0.33415717      -0.02232912      -0.70271260
Al      23.22500000       9.05000000      16.80447413      -0.14099850      -0.04789590      -0.82216334
Al      23.22500000      11.07500000      14.40625766      -0.08229511      -0.07962385      -0.29594959
Al      21.20000000      13.10000000       5.00000000      -0.32106299       0.00012431      -0.77659220
Al      21.20000000      15.12500000       7.02500000      -0.33621033      -0.00069274       1.61926090
Al      23.22500000      13.10000000       7.02500000       0.26557672      -0.05153950       1.51326400
Al      23.22500000      15.12500000       5.00000000       0.17557845       0.00915899      -0.35900362
Al      21.19948973      12.94894243       9.44903368       0.01519039      -0.00469256       0.00462894
Al      21.07915653      15.14406678      11.95372088       0.00556535       0.01432240       0.00992970
Al      23.06695583      13.07620977      11.91645921       0.01143286      -0.01878075       0.00849177
Al      23.04842757      15.15438131       9.46917415      -0.00672624       0.01322888       0.00531091
Al      21.20000000      13.10000000      14.40625766      -0.34153787      -0.06229194      -0.16315604
Al      21.20000000      15.12500000      16.80447413      -0.34034542       0.00768504      -0.70285972
Al      23.22500000      13.10000000      16.80447413      -0.13784399      -0.00797818      -0.80403187
Al      23.22500000      15.12500000      14.40625766      -0.11579479       0.01313978      -0.31008517
Al      21.20000000      17.15000000       5.00000000      -0.32621298       0.02162398      -0.77872045
Al      21.20000000      19.17500000       7.02500000      -0.39082904      -0.04126234       1.51971132
Al      23.22500000      17.15000000       7.02500000       0.19212801       0.00726564       1.43336803
Al      23.22500000      19.17500000       5.00000000       0.17440149       0.04016292      -0.33616577
Al      21.05791163      17.23830342       9.46461760      -0.00049110       0.02607678      -0.01048546
Al      20.99834615      19.07271811      11.96763679       0.00517572       0.01280400       0.00056818
Al      23.12233108      17.18477318      11.91201877       0.01460847       0.00660964       0.01595196
Al      23.19549506      19.17190376       9.42373287      -0.00499593       0.00770979       0.01108837
Al      21.20000000      17.15000000      14.40625766      -0.37460092      -0.01013645      -0.13844404