299
Lattice="28.224999999999998 0.0 0.0 0.0 28.224999999999998 0.0 0.0 0.0 20.125" Properties=species:S:1:pos:R:3:forces:R:3 energy=-16379.12867123163 pbc="T T T"
Al       5.00000000       5.00000000       5.00000000       0.40298296       0.39903379      -0.09265905
Al       5.00000000       7.02500000       7.02500000      -0.05996565       0.64918618       1.24753059
Al       7.02500000       5.00000000       7.02500000       0.71620732      -0.09926016       1.27336481
Al       7.02500000       7.02500000       5.00000000       0.31287297       0.31790957      -0.87872698
Al       5.99035572       5.95706109       9.69333004       0.00145985      -0.01059073       0.03892299
Al       5.59800163       7.53810379      12.62360381       0.00569650      -0.00179956      -0.01605734
Al       7.60980557       5.42177431      12.52887693       0.01243234       0.00382433      -0.01966761
Al       8.07426478       7.55641313      10.25094429       0.03123402      -0.03668372       0.01492831
Al       5.00000000       5.00000000      15.37714973       1.13182953       1.12030505       0.03270543
Al       5.00000000       7.02500000      18.05276394       0.34955017       0.48942561      -1.22693775
Al       7.02500000       5.00000000      18.05276394       0.48632731       0.34767741      -1.22390931
Al       7.02500000       7.02500000      15.37714973       0.58544788       0.45135831       0.15613557
Al       5.00000000       9.05000000       5.00000000      -0.15012621      -0.03459331      -0.52713065
Al       5.00000000      11.07500000       7.02500000      -0.03906323       0.09999136       1.84353862
Al       7.02500000       9.05000000       7.02500000       0.61841492      -0.07982073       2.00849865
Al       7.02500000      11.07500000       5.00000000       0.32422225      -0.01087106      -0.92438647
Al       5.72640144       9.13129814       9.74940155      -0.02278223       0.00492838       0.01259492
Al       5.51518834      11.11577905      12.57916513      -0.03904520       0.00669147      -0.01534925
Al       7.71540867       9.34827196      12.59012524       0.02891709      -0.01843208       0.02038007
Al       7.08267689      11.69892048       9.83220612      -0.00316430       0.01084369       0.00568339
Al       5.00000000       9.05000000      15.37714973       0.36845001       0.11310228       0.11825144
Al       5.00000000      11.07500000      18.05276394       0.23880503      -0.01402988      -1.13729084
Al       7.02500000       9.05000000      18.05276394       0.34692724      -0.04207267      -1.16989681
Al       7.02500000      11.07500000      15.37714973       0.48109094       0.05294655       0.05140002
Al       5.00000000      13.10000000       5.00000000      -0.16481537       0.00656393      -0.52396790
Al       5.00000000      15.12500000       7.02500000      -0.04818413       0.00763669       1.60889426
Al       7.02500000      13.10000000       7.02500000       0.35705052       0.12325865       2.08845803
Al       7.02500000      15.12500000       5.00000000       0.32474931       0.01243135      -0.92155015
Al       5.08405527      13.69704197       9.92088174       0.00066172      -0.02093426       0.00929764
Al       5.00638668      15.65611825      12.71224673      -0.01058484      -0.00884792      -0.00368895
Al       6.92710968      13.66143382      12.68010867      -0.01980585       0.01149135      -0.00331950
Al       7.79159235      14.69510932       9.84951678      -0.00738982       0.00280244       0.00448817
Al       5.00000000      13.10000000      15.37714973       0.27251001       0.10616054      -0.10632376
Al       5.00000000      15.12500000      18.05276394       0.23123846       0.01218462      -1.15783875
Al       7.02500000      13.10000000      18.05276394       0.34751192      -0.00013304      -1.17216347
Al       7.02500000      15.12500000      15.37714973       0.37817413       0.19320406       0.15266189
Al       5.00000000      17.15000000       5.00000000      -0.15275927       0.01627700      -0.52695733
Al       5.00000000      19.17500000       7.02500000      -0.04661841      -0.20668331       1.52880782
Al       7.02500000      17.15000000       7.02500000       0.39585775       0.00947708       1.83522958
Al       7.02500000      19.17500000       5.00000000       0.32658885       0.04670270      -0.88186674
Al       5.70731528      16.74584818       9.79096376      -0.00268395       0.01264994       0.00570537
Al       5.63651762      18.80408724      12.54964468      -0.00834836       0.00999587      -0.00716475
Al       7.66728967      16.77091839      12.45441011      -0.00203320       0.01549256      -0.00636722
Al       7.05276846      19.24638193       9.69501906      -0.00818421       0.00694690       0.00839076
Al       5.00000000      17.15000000      15.37714973       0.33631625       0.13287922       0.31471980
Al       5.00000000      19.17500000      18.05276394       0.24851776       0.04064203      -1.13880977
Al       7.02500000      17.15000000      18.05276394       0.34930475       0.02172628      -1.16620366
Al       7.02500000      19.17500000      15.37714973       0.39674924       0.01098315       0.14264112
Al       5.00000000      21.20000000       5.00000000      -0.07841677      -0.44598162      -0.30680906
Al       5.00000000      23.22500000       7.02500000       0.43869697      -0.43869697       0.91083059
Al       7.02500000      21.20000000       7.02500000       0.45250704      -0.45250704       1.67786697
Al       7.02500000      23.22500000       5.00000000       0.44598162       0.07841677      -0.30680906
Al       5.07520441      21.10980130       9.40530012      -0.02097732       0.00024556       0.02306723
Al       6.61918040      21.60581960      12.34378701       0.00152047      -0.00152047      -0.00848630
Al       8.64067788      19.58432212      12.58832564       0.00187176      -0.00187176       0.00503937
Al       7.11519870      23.14979559       9.40530012      -0.00024556       0.02097732       0.02306723
Al       5.00000000      21.20000000      15.37714973       0.50418777      -0.69178487       0.21857758
Al       5.00000000      23.22500000      18.05276394       0.88232607      -0.88232607      -0.97267061
Al       7.02500000      21.20000000      18.05276394       0.34495574      -0.34495574      -1.21134854
Al       7.02500000      23.22500000      15.37714973       0.69178487      -0.50418777       0.21857758
Al       9.05000000       5.00000000       5.00000000      -0.03520979      -0.17367981      -0.48951297
Al       9.05000000       7.02500000       7.02500000      -0.09342189       0.45372332       2.33875478
Al      11.07500000       5.00000000       7.02500000       0.12436876      -0.07512811       1.48096460
Al      11.07500000       7.02500000       5.00000000      -0.02587211       0.31894161      -0.93837047
Al       9.45178711       5.19308183       9.65525456      -0.00555096       0.02484989       0.01409115
Al       9.59876299       7.32200351      12.87213531      -0.01143731      -0.00022209       0.00056590
Al      11.31888143       5.15322772      12.53189192      -0.00431727       0.00112985      -0.01889373
Al      10.99786577       7.69789247       9.91465283       0.00628711      -0.01692536      -0.00330758
Al       9.05000000       5.00000000      15.37714973       0.15239484       0.31313352       0.04171416
Al       9.05000000       7.02500000      18.05276394      -0.04901968       0.35076655      -1.17740875
Al      11.07500000       5.00000000      18.05276394      -0.02333053       0.23035257      -1.14001108
Al      11.07500000       7.02500000      15.37714973       0.23883867       0.29698576       0.56813735
Al       9.05000000       9.05000000       5.00000000      -0.04671156      -0.03051043      -0.99406135
Al       9.05000000      11.07500000       7.02500000      -0.05035210       0.28816047       1.67370936
Al      11.07500000       9.05000000       7.02500000       0.01761563       0.01768778       2.16033277
Al      11.07500000      11.07500000       5.00000000      -0.02599272      -0.00948895      -0.97492636
Al       9.17510948       9.91022995       9.69126114      -0.00230373       0.00054790       0.00853142
Al       8.93242932      11.81159296      12.61303014       0.00705023      -0.00726449      -0.01008696
Al      10.86532555       9.79021455      12.49274327      -0.03312677       0.00341646      -0.00186015
Al      11.87760521      10.70312423       9.77157095      -0.02059706      -0.00945681      -0.00642797
Al       9.05000000       9.05000000      15.37714973       0.05228594       0.15321590       0.30254683
Al       9.05000000      11.07500000      18.05276394      -0.05260975      -0.01263227      -1.11720143
Al      11.07500000       9.05000000      18.05276394      -0.02755920      -0.04523252      -1.11614722
Al      11.07500000      11.07500000      15.37714973      -0.03075001       0.04442295      -0.07820352
Al       9.05000000      13.10000000       5.00000000      -0.04886443      -0.00050905      -0.98290937
Al       9.05000000      15.12500000       7.02500000       0.03380401      -0.03324623       2.01886704
Al      11.07500000      13.10000000       7.02500000       0.01252123      -0.00498847       1.90804855
Al      11.07500000      15.12500000       5.00000000      -0.02294950       0.01266751      -0.96129139
Al       9.84134750      12.73186013       9.80343325      -0.01405746      -0.03627220       0.00871173
Al       9.64353643      14.77393080      12.60414595       0.00077707       0.01077562       0.00158013
Al      11.66349456      12.78871964      12.48953028      -0.03515746      -0.00941353      -0.00446540
Al      10.89614443      15.35563788       9.71527974       0.01167419       0.00737842       0.00554190
Al       9.05000000      13.10000000      15.37714973      -0.02920644       0.10817829       0.21172533
Al       9.05000000      15.12500000      18.05276394      -0.05003075       0.01061848      -1.11693969
Al      11.07500000      13.10000000      18.05276394      -0.02654163       0.00166510      -1.11538103
Al      11.07500000      15.12500000      15.37714973       0.03232436       0.01187658       0.09141335
Al       9.05000000      17.15000000       5.00000000      -0.04695605       0.02598290      -0.94353861
Al       9.05000000      19.17500000       7.02500000      -0.17577005       0.17577005       1.89197850
Al      11.07500000      17.15000000       7.02500000      -0.04351263       0.04351263       2.02759139
Al      11.07500000      19.17500000       5.00000000      -0.02598290       0.04695605      -0.94353861
Al       8.93300261      17.29079889       9.54724392       0.00804806      -0.00322179       0.00260758
Al      10.63738283      17.58761717      12.31593292       0.00627579      -0.00627579      -0.01396953
Al      12.63640732      15.58859268      12.53872924      -0.01532415       0.01532415      -0.00972302
Al      10.93420111      19.29199739       9.54724392       0.00322179      -0.00804806       0.00260758
Al       9.05000000      17.15000000      15.37714973       0.00151891       0.02689925      -0.17275681
Al       9.05000000      19.17500000      18.05276394      -0.04847797       0.04847797      -1.11702985
Al      11.07500000      17.15000000      18.05276394      -0.02345396       0.02345396      -1.11083982
Al      11.07500000      19.17500000      15.37714973      -0.02689925      -0.00151891      -0.17275681
Al       9.05000000      21.20000000       5.00000000      -0.04670270      -0.32658885      -0.88186674
Al       9.05000000      23.22500000       7.02500000       0.20668331       0.04661841       1.52880782
Al      11.07500000      21.20000000       7.02500000      -0.00947708      -0.39585775       1.83522958
Al      11.07500000      23.22500000       5.00000000      -0.01627700       0.15275927      -0.52695733
Al       8.97861807      21.17223154       9.69501906      -0.00694690       0.00818421       0.00839076
Al       9.42091276      22.58848238      12.54964468      -0.00999587       0.00834836      -0.00716475
Al      11.45408161      20.55771033      12.45441011      -0.01549256       0.00203320      -0.00636722
Al      11.47915182      22.51768472       9.79096376      -0.01264994       0.00268395       0.00570537
Al       9.05000000      21.20000000      15.37714973      -0.01098315      -0.39674924       0.14264112
Al       9.05000000      23.22500000      18.05276394      -0.04064203      -0.24851776      -1.13880977
Al      11.07500000      21.20000000      18.05276394      -0.02172628      -0.34930475      -1.16620366
Al      11.07500000      23.22500000      15.37714973      -0.13287922      -0.33631625       0.31471980
Al      13.10000000       5.00000000       5.00000000      -0.01600975      -0.16529988      -0.52842221
Al      13.10000000       7.02500000       7.02500000       0.00922905       0.51823236       2.02381018
Al      15.12500000       5.00000000       7.02500000       0.03103436      -0.21177327       1.68196619
Al      15.12500000       7.02500000       5.00000000       0.00180714       0.31962146      -0.91144000
Al      12.95461102       5.60366841       9.75874972       0.00561090      -0.00079161       0.01154979
Al      12.76335436       7.65557133      12.69414358       0.00867322      -0.00926125      -0.00426504
Al      14.88686360       5.66830294      12.50832426      -0.00653146       0.00099202      -0.00474003
Al      15.71772946       6.73136035       9.59401232      -0.01380359      -0.02562437       0.01237807
Al      13.10000000       5.00000000      15.37714973      -0.04367629       0.36791768      -0.04800243
Al      13.10000000       7.02500000      18.05276394      -0.01328288       0.34748601      -1.16497638
Al      15.12500000       5.00000000      18.05276394      -0.00231856       0.23145799      -1.12406236
Al      15.12500000       7.02500000      15.37714973      -0.00427951       0.42342590       0.12887477
Al      13.10000000       9.05000000       5.00000000      -0.01344901      -0.03749721      -0.99890964
Al      13.10000000      11.07500000       7.02500000       0.05956502       0.02039361       1.84242639
Al      15.12500000       9.05000000       7.02500000       0.03853086      -0.03359584       2.21340594
Al      15.12500000      11.07500000       5.00000000      -0.00515579      -0.00546927      -0.97045054
Al      13.75515413       8.64197100       9.90979080      -0.00610592      -0.00355386      -0.00026946
Al      13.60586642      10.77220394      12.60626111      -0.01806787      -0.02189745       0.00068608
Al      15.51386417       8.77132474      12.66297476      -0.02980119      -0.01654142       0.01895482
Al      14.85783907      11.35933191       9.67650742      -0.00661380      -0.02465266      -0.00342995
Al      13.10000000       9.05000000      15.37714973      -0.01134097       0.11389049       0.19652223
Al      13.10000000      11.07500000      18.05276394      -0.01530415      -0.01315248      -1.11358360
Al      15.12500000       9.05000000      18.05276394      -0.00290016      -0.04633397      -1.11525090
Al      15.12500000      11.07500000      15.37714973       0.07707005      -0.01283616       0.00884142
Al      13.10000000      13.10000000       5.00000000      -0.01333724       0.00493007      -0.94606005
Al      13.10000000      15.12500000       7.02500000      -0.16833934       0.16833934       1.92415610
Al      15.12500000      13.10000000       7.02500000      -0.12188783       0.12188783       1.99900568
Al      15.12500000      15.12500000       5.00000000      -0.00493007       0.01333724      -0.94606005
Al      12.87461626      13.37154811       9.60273758      -0.00209313      -0.01325168       0.00411024
Al      14.63155991      13.59344009      12.33327207       0.01006831      -0.01006831      -0.00387113
Al      14.85345189      15.35038374       9.60273758       0.01325168       0.00209313       0.00411024
Al      13.10000000      13.10000000      15.37714973       0.04154121       0.01599864      -0.13411425
Al      13.10000000      15.12500000      18.05276394      -0.01475812       0.01475812      -1.11478320
Al      15.12500000      13.10000000      18.05276394      -0.00313676       0.00313676      -1.10760794
Al      15.12500000      15.12500000      15.37714973      -0.01599864      -0.04154121      -0.13411425
Al      13.10000000      17.15000000       5.00000000      -0.01266751       0.02294950      -0.96129139
Al      13.10000000      19.17500000       7.02500000       0.03324623      -0.03380401       2.01886704
Al      15.12500000      17.15000000       7.02500000       0.00498847      -0.01252123       1.90804855
Al      15.12500000      19.17500000       5.00000000       0.00050905       0.04886443      -0.98290937
Al      12.86936212      17.32885557       9.71527974      -0.00737842      -0.01167419       0.00554190
Al      13.45106920      18.58146357      12.60414595      -0.01077562      -0.00077707       0.00158013
Al      15.43628036      16.56150544      12.48953028       0.00941353       0.03515746      -0.00446540
Al      15.49313987      18.38365250       9.80343325       0.03627220       0.01405746       0.00871173
Al      13.10000000      17.15000000      15.37714973      -0.01187658      -0.03232436       0.09141335
Al      13.10000000      19.17500000      18.05276394      -0.01061848       0.05003075      -1.11693969
Al      15.12500000      17.15000000      18.05276394      -0.00166510       0.02654163      -1.11538103
Al      15.12500000      19.17500000      15.37714973      -0.10817829       0.02920644       0.21172533
Al      13.10000000      21.20000000       5.00000000      -0.01243135      -0.32474931      -0.92155015
Al      13.10000000      23.22500000       7.02500000      -0.00763669       0.04818413       1.60889426
Al      15.12500000      21.20000000       7.02500000      -0.12325865      -0.35705052       2.08845803
Al      15.12500000      23.22500000       5.00000000      -0.00656393       0.16481537      -0.52396790
Al      13.52989068      20.43340765       9.84951678      -0.00280244       0.00738982       0.00448817
Al      12.56888175      23.21861332      12.71224673       0.00884792       0.01058484      -0.00368895
Al      14.56356618      21.29789032      12.68010867      -0.01149135       0.01980585      -0.00331950
Al      14.52795803      23.14094473       9.92088174       0.02093426      -0.00066172       0.00929764
Al      13.10000000      21.20000000      15.37714973      -0.19320406      -0.37817413       0.15266189
Al      13.10000000      23.22500000      18.05276394      -0.01218462      -0.23123846      -1.15783875
Al      15.12500000      21.20000000      18.05276394       0.00013304      -0.34751192      -1.17216347
Al      15.12500000      23.22500000      15.37714973      -0.10616054      -0.27251001      -0.10632376
Al      17.15000000       5.00000000       5.00000000       0.01562096      -0.17337287      -0.52401288
Al      17.15000000       7.02500000       7.02500000       0.12107813       0.33533763       1.53003787
Al      19.17500000       5.00000000       7.02500000      -0.09535740      -0.09753202       1.73698687
Al      19.17500000       7.02500000       5.00000000       0.03865611       0.33042207      -0.89876240
Al      17.77018746       4.84298908      10.09248734      -0.02011011       0.01430672      -0.01129110
Al      17.56312345       6.93190245      12.50410249       0.00305402      -0.02042925       0.00890134
Al      19.53274645       4.99437846      12.82565078      -0.00926661       0.02566011       0.00444032
Al      18.82267109       7.42170101       9.54209900       0.02660625      -0.00244480       0.00053605
Al      17.15000000       5.00000000      15.37714973       0.05075582       0.29888644      -0.18900959
Al      17.15000000       7.02500000      18.05276394       0.01106392       0.34602147      -1.15897981
Al      19.17500000       5.00000000      18.05276394       0.03883220       0.22128807      -1.16086456
Al      19.17500000       7.02500000      15.37714973       0.14009238       0.41283073      -0.14095250
Al      17.15000000       9.05000000       5.00000000       0.01469996      -0.04677346      -0.97735134
Al      17.15000000      11.07500000       7.02500000      -0.03204305       0.03204305       2.26624122
Al      19.17500000       9.05000000       7.02500000      -0.21489219       0.21489219       1.65067206
Al      19.17500000      11.07500000       5.00000000       0.04677346      -0.01469996      -0.97735134
Al      16.83772106       9.37867161       9.83459577       0.03537117      -0.02021668      -0.01292094
Al      16.60748772      11.61751228      12.46522383      -0.00237682       0.00237682      -0.00233234
Al      18.55509632       9.66990368      12.59821923       0.03776289      -0.03776289      -0.00079944
Al      18.84632839      11.38727894       9.83459577       0.02021668      -0.03537117      -0.01292094
Al      17.15000000       9.05000000      15.37714973       0.00579812      -0.05710243       0.14231311
Al      17.15000000      11.07500000      18.05276394       0.01387378      -0.01387378      -1.10848530
Al      19.17500000       9.05000000      18.05276394       0.04166163      -0.04166163      -1.10395330
Al      19.17500000      11.07500000      15.37714973       0.05710243      -0.00579812       0.14231311
Al      17.15000000      13.10000000       5.00000000       0.00546927       0.00515579      -0.97045054
Al      17.15000000      15.12500000       7.02500000      -0.02039361      -0.05956502       1.84242639
Al      19.17500000      13.10000000       7.02500000       0.03359584      -0.03853086       2.21340594
Al      19.17500000      15.12500000       5.00000000       0.03749721       0.01344901      -0.99890964
Al      16.86566809      13.36716093       9.67650742       0.02465266       0.00661380      -0.00342995
Al      17.45279606      14.61913358      12.60626111       0.02189745       0.01806787       0.00068608
Al      19.45367526      12.71113583      12.66297476       0.01654142       0.02980119       0.01895482
Al      19.58302900      14.46984587       9.90979080       0.00355386       0.00610592      -0.00026946
Al      17.15000000      13.10000000      15.37714973       0.01283616      -0.07707005       0.00884142
Al      17.15000000      15.12500000      18.05276394       0.01315248       0.01530415      -1.11358360
Al      19.17500000      13.10000000      18.05276394       0.04633397       0.00290016      -1.11525090
Al      19.17500000      15.12500000      15.37714973      -0.11389049       0.01134097       0.19652223
Al      17.15000000      17.15000000       5.00000000       0.00948895       0.02599272      -0.97492636
Al      17.15000000      19.17500000       7.02500000      -0.28816047       0.05035210       1.67370936
Al      19.17500000      17.15000000       7.02500000      -0.01768778      -0.01761563       2.16033277
Al      19.17500000      19.17500000       5.00000000       0.03051043       0.04671156      -0.99406135
Al      17.52187577      16.34739479       9.77157095       0.00945681       0.02059706      -0.00642797
Al      16.41340704      19.29257068      12.61303014       0.00726449      -0.00705023      -0.01008696
Al      18.43478545      17.35967445      12.49274327      -0.00341646       0.03312677      -0.00186015
Al      18.31477005      19.04989052       9.69126114      -0.00054790       0.00230373       0.00853142
Al      17.15000000      17.15000000      15.37714973      -0.04442295       0.03075001      -0.07820352
Al      17.15000000      19.17500000      18.05276394       0.01263227       0.05260975      -1.11720143
Al      19.17500000      17.15000000      18.05276394       0.04523252       0.02755920      -1.11614722
Al      19.17500000      19.17500000      15.37714973      -0.15321590      -0.05228594       0.30254683
Al      17.15000000      21.20000000       5.00000000       0.01087106      -0.32422225      -0.92438647
Al      17.15000000      23.22500000       7.02500000      -0.09999136       0.03906323       1.84353862
Al      19.17500000      21.20000000       7.02500000       0.07982073      -0.61841492       2.00849865
Al      19.17500000      23.22500000       5.00000000       0.03459331       0.15012621      -0.52713065
Al      16.52607952      21.14232311       9.83220612      -0.01084369       0.00316430       0.00568339
Al      17.10922095      22.70981166      12.57916513      -0.00669147       0.03904520      -0.01534925
Al      18.87672804      20.50959133      12.59012524       0.01843208      -0.02891709       0.02038007
Al      19.09370186      22.49859856       9.74940155      -0.00492838       0.02278223       0.01259492
Al      17.15000000      21.20000000      15.37714973      -0.05294655      -0.48109094       0.05140002
Al      17.15000000      23.22500000      18.05276394       0.01402988      -0.23880503      -1.13729084
Al      19.17500000      21.20000000      18.05276394       0.04207267      -0.34692724      -1.16989681
Al      19.17500000      23.22500000      15.37714973      -0.11310228      -0.36845001       0.11825144
Al      21.20000000       5.00000000       5.00000000      -0.44849380      -0.07482741      -0.42706689
Al      21.20000000       7.02500000       7.02500000      -0.45674930       0.45674930       2.00195303
Al      23.22500000       5.00000000       7.02500000      -0.62235752       0.62235752       1.22940639
Al      23.22500000       7.02500000       5.00000000       0.07482741       0.44849380      -0.42706689
Al      20.79884829       5.40886940       9.77620126      -0.00123373       0.01114959      -0.00254911
Al      20.49133106       7.73366894      12.15847530      -0.00375446       0.00375446      -0.00176499
Al      22.42288534       5.80211466      12.61160873      -0.00500359       0.00500359      -0.01178023
Al      22.81613060       7.42615171       9.77620126      -0.01114959       0.00123373      -0.00254911
Al      21.20000000       5.00000000      15.37714973      -0.38362304       0.32702475       0.54205426
Al      21.20000000       7.02500000      18.05276394      -0.34220609       0.34220609      -1.19561778
Al      23.22500000       5.00000000      18.05276394      -0.85849322       0.85849322      -1.01219777
Al      23.22500000       7.02500000      15.37714973      -0.32702475       0.38362304       0.54205426
Al      21.20000000       9.05000000       5.00000000      -0.33042207      -0.03865611      -0.89876240
Al      21.20000000      11.07500000       7.02500000      -0.33533763      -0.12107813       1.53003787
Al      23.22500000       9.05000000       7.02500000       0.09753202       0.09535740       1.73698687
Al      23.22500000      11.07500000       5.00000000       0.17337287      -0.01562096      -0.52401288
Al      20.80329899       9.40232891       9.54209900       0.00244480      -0.02660625       0.00053605
Al      21.29309755      10.66187655      12.50410249       0.02042925      -0.00305402       0.00890134
Al      23.23062154       8.69225355      12.82565078      -0.02566011       0.00926661       0.00444032
Al      23.38201092      10.45481254      10.09248734      -0.01430672       0.02011011      -0.01129110
Al      21.20000000       9.05000000      15.37714973      -0.41283073      -0.14009238      -0.14095250
Al      21.20000000      11.07500000      18.05276394      -0.34602147      -0.01106392      -1.15897981
Al      23.22500000       9.05000000      18.05276394      -0.22128807      -0.03883220      -1.16086456
Al      23.22500000      11.07500000      15.37714973      -0.29888644      -0.05075582      -0.18900959
Al      21.20000000      13.10000000       5.00000000      -0.31962146      -0.00180714      -0.91144000
Al      21.20000000      15.12500000       7.02500000      -0.51823236      -0.00922905       2.02381018
Al      23.22500000      13.10000000       7.02500000       0.21177327      -0.03103436       1.68196619
Al      23.22500000      15.12500000       5.00000000       0.16529988       0.01600975      -0.52842221
Al      21.49363965      12.50727054       9.59401232       0.02562437       0.01380359       0.01237807
Al      20.56942867      15.46164564      12.69414358       0.00926125      -0.00867322      -0.00426504
Al      22.55669706      13.33813640      12.50832426      -0.00099202       0.00653146      -0.00474003
Al      22.62133159      15.27038898       9.75874972       0.00079161      -0.00561090       0.01154979
Al      21.20000000      13.10000000      15.37714973      -0.42342590       0.00427951       0.12887477
Al      21.20000000      15.12500000      18.05276394      -0.34748601       0.01328288      -1.16497638
Al      23.22500000      13.10000000      18.05276394      -0.23145799       0.00231856      -1.12406236
Al      23.22500000      15.12500000      15.37714973      -0.36791768       0.04367629      -0.04800243
Al      21.20000000      17.15000000       5.00000000      -0.31894161       0.02587211      -0.93837047
Al      21.20000000      19.17500000       7.02500000      -0.45372332       0.09342189       2.33875478
Al      23.22500000      17.15000000       7.02500000       0.07512811      -0.12436876       1.48096460
Al      23.22500000      19.17500000       5.00000000       0.17367981       0.03520979      -0.48951297
Al      20.52710753      17.22713423       9.91465283       0.01692536      -0.00628711      -0.00330758
Al      20.90299649      18.62623701      12.87213531       0.00022209       0.01143731       0.00056590
Al      23.07177228      16.90611857      12.53189192      -0.00112985       0.00431727      -0.01889373
Al      23.03191817      18.77321289       9.65525456      -0.02484989       0.00555096       0.01409115
Al      21.20000000      17.15000000      15.37714973      -0.29698576      -0.23883867       0.56813735