299
Lattice="28.224999999999998 0.0 0.0 0.0 28.224999999999998 0.0 0.0 0.0 20.125" Properties=species:S:1:pos:R:3 energy=-16440.448645052707 pbc="T T T"
Al       5.00000000       5.00000000       5.00000000
Al       5.00000000       7.02500000       7.02500000
Al       7.02500000       5.00000000       7.02500000
Al       7.02500000       7.02500000       5.00000000
Al       5.39086194       5.40041441       9.52789903
Al       5.30008282       7.29988802      11.89788062
Al       7.20248579       5.07159236      11.93571265
Al       7.33332114       7.32440578       9.46419657
Al       5.00000000       5.00000000      14.32315115
Al       5.00000000       7.02500000      16.69762290
Al       7.02500000       5.00000000      16.69762290
Al       7.02500000       7.02500000      14.32315115
Al       5.00000000       9.05000000       5.00000000
Al       5.00000000      11.07500000       7.02500000
Al       7.02500000       9.05000000       7.02500000
Al       7.02500000      11.07500000       5.00000000
Al       5.05650494       9.05775826       9.40497033
Al       5.01170941      11.03299042      11.86812870
Al       7.30075623       9.32143501      11.87697803
Al       7.09635936      11.08986978       9.41796901
Al       5.00000000       9.05000000      14.32315115
Al       5.00000000      11.07500000      16.69762290
Al       7.02500000       9.05000000      16.69762290
Al       7.02500000      11.07500000      14.32315115
Al       5.00000000      13.10000000       5.00000000
Al       5.00000000      15.12500000       7.02500000
Al       7.02500000      13.10000000       7.02500000
Al       7.02500000      15.12500000       5.00000000
Al       5.04672083      13.09523556       9.44278672
Al       5.10605730      15.13958089      11.87450716
Al       7.08212558      13.04647138      11.88350088
Al       7.07581802      15.14358975       9.43974049
Al       5.00000000      13.10000000      14.32315115
Al       5.00000000      15.12500000      16.69762290
Al       7.02500000      13.10000000      16.69762290
Al       7.02500000      15.12500000      14.32315115
Al       5.00000000      17.15000000       5.00000000
Al       5.00000000      19.17500000       7.02500000
Al       7.02500000      17.15000000       7.02500000
Al       7.02500000      19.17500000       5.00000000
Al       5.02047563      17.18439488       9.44879665
Al       5.03626485      19.24681332      11.89169642
Al       7.08769239      17.23858894      11.88443514
Al       7.18353255      19.04827784       9.39263844
Al       5.00000000      17.15000000      14.32315115
Al       5.00000000      19.17500000      16.69762290
Al       7.02500000      17.15000000      16.69762290
Al       7.02500000      19.17500000      14.32315115
Al       5.00000000      21.20000000       5.00000000
Al       5.00000000      23.22500000       7.02500000
Al       7.02500000      21.20000000       7.02500000
Al       7.02500000      23.22500000       5.00000000
Al       5.15404081      20.99279730       9.36267570
Al       5.58546589      22.63953411      11.79189333
Al       7.54914650      20.67585350      11.83516272
Al       7.23220270      23.07095919       9.36267570
Al       5.00000000      21.20000000      14.32315115
Al       5.00000000      23.22500000      16.69762290
Al       7.02500000      21.20000000      16.69762290
Al       7.02500000      23.22500000      14.32315115
Al       9.05000000       5.00000000       5.00000000
Al       9.05000000       7.02500000       7.02500000
Al      11.07500000       5.00000000       7.02500000
Al      11.07500000       7.02500000       5.00000000
Al       9.01834191       5.01268747       9.41964515
Al       9.09013573       7.14169047      11.91221685
Al      11.04985569       5.05965532      11.86936917
Al      11.01804133       7.08441678       9.44036412
Al       9.05000000       5.00000000      14.32315115
Al       9.05000000       7.02500000      16.69762290
Al      11.07500000       5.00000000      16.69762290
Al      11.07500000       7.02500000      14.32315115
Al       9.05000000       9.05000000       5.00000000
Al       9.05000000      11.07500000       7.02500000
Al      11.07500000       9.05000000       7.02500000
Al      11.07500000      11.07500000       5.00000000
Al       9.23608656       9.26449658       9.44549918
Al       9.33819035      11.33656147      11.87901514
Al      11.08979732       9.10222638      11.90213213
Al      11.20810738      11.18309619       9.45169876
Al       9.05000000       9.05000000      14.32315115
Al       9.05000000      11.07500000      16.69762290
Al      11.07500000       9.05000000      16.69762290
Al      11.07500000      11.07500000      14.32315115
Al       9.05000000      13.10000000       5.00000000
Al       9.05000000      15.12500000       7.02500000
Al      11.07500000      13.10000000       7.02500000
Al      11.07500000      15.12500000       5.00000000
Al       9.08567765      13.11949552       9.43083236
Al       9.05970777      15.14778013      11.88178379
Al      11.43188075      13.42833311      11.83283943
Al      11.10803098      15.09174767       9.30680455
Al       9.05000000      13.10000000      14.32315115
Al       9.05000000      15.12500000      16.69762290
Al      11.07500000      13.10000000      16.69762290
Al      11.07500000      15.12500000      14.32315115
Al       9.05000000      17.15000000       5.00000000
Al       9.05000000      19.17500000       7.02500000
Al      11.07500000      17.15000000       7.02500000
Al      11.07500000      19.17500000       5.00000000
Al       9.14519698      17.06378777       9.40162749
Al       9.54992827      18.67507173      11.84913178
Al      11.63338232      16.59161768      11.80568173
Al      11.16121223      19.07980302       9.40162749
Al       9.05000000      17.15000000      14.32315115
Al       9.05000000      19.17500000      16.69762290
Al      11.07500000      17.15000000      16.69762290
Al      11.07500000      19.17500000      14.32315115
Al       9.05000000      21.20000000       5.00000000
Al       9.05000000      23.22500000       7.02500000
Al      11.07500000      21.20000000       7.02500000
Al      11.07500000      23.22500000       5.00000000
Al       9.17672216      21.04146745       9.39263844
Al       8.97818668      23.18873515      11.89169642
Al      10.98641106      21.13730761      11.88443514
Al      11.04060512      23.20452437       9.44879665
Al       9.05000000      21.20000000      14.32315115
Al       9.05000000      23.22500000      16.69762290
Al      11.07500000      21.20000000      16.69762290
Al      11.07500000      23.22500000      14.32315115
Al      13.10000000       5.00000000       5.00000000
Al      13.10000000       7.02500000       7.02500000
Al      15.12500000       5.00000000       7.02500000
Al      15.12500000       7.02500000       5.00000000
Al      13.09033045       5.08370680       9.44343419
Al      13.08791144       7.10904325      11.88702353
Al      15.13600933       5.09406531      11.87138879
Al      15.17029802       7.07501226       9.43753273
Al      13.10000000       5.00000000      14.32315115
Al      13.10000000       7.02500000      16.69762290
Al      15.12500000       5.00000000      16.69762290
Al      15.12500000       7.02500000      14.32315115
Al      13.10000000       9.05000000       5.00000000
Al      13.10000000      11.07500000       7.02500000
Al      15.12500000       9.05000000       7.02500000
Al      15.12500000      11.07500000       5.00000000
Al      13.09986046       9.03483717       9.43849520
Al      13.16291623      11.06675906      11.88881884
Al      15.19708664       9.03375960      11.89012922
Al      15.05578697      11.12871641       9.41973978
Al      13.10000000       9.05000000      14.32315115
Al      13.10000000      11.07500000      16.69762290
Al      15.12500000       9.05000000      16.69762290
Al      15.12500000      11.07500000      14.32315115
Al      13.10000000      13.10000000       5.00000000
Al      13.10000000      15.12500000       7.02500000
Al      15.12500000      13.10000000       7.02500000
Al      15.12500000      15.12500000       5.00000000
Al      13.12158186      13.14927609       9.31596050
Al      14.65894287      13.56605713      11.83045010
Al      15.07572391      15.10341814       9.31596050
Al      13.10000000      13.10000000      14.32315115
Al      13.10000000      15.12500000      16.69762290
Al      15.12500000      13.10000000      16.69762290
Al      15.12500000      15.12500000      14.32315115
Al      13.10000000      17.15000000       5.00000000
Al      13.10000000      19.17500000       7.02500000
Al      15.12500000      17.15000000       7.02500000
Al      15.12500000      19.17500000       5.00000000
Al      13.13325233      17.11696902       9.30680455
Al      13.07721987      19.16529223      11.88178379
Al      14.79666689      16.79311925      11.83283943
Al      15.10550448      19.13932235       9.43083236
Al      13.10000000      17.15000000      14.32315115
Al      13.10000000      19.17500000      16.69762290
Al      15.12500000      17.15000000      16.69762290
Al      15.12500000      19.17500000      14.32315115
Al      13.10000000      21.20000000       5.00000000
Al      13.10000000      23.22500000       7.02500000
Al      15.12500000      21.20000000       7.02500000
Al      15.12500000      23.22500000       5.00000000
Al      13.08141025      21.14918198       9.43974049
Al      13.08541911      23.11894270      11.87450716
Al      15.17852862      21.14287442      11.88350088
Al      15.12976444      23.17827917       9.44278672
Al      13.10000000      21.20000000      14.32315115
Al      13.10000000      23.22500000      16.69762290
Al      15.12500000      21.20000000      16.69762290
Al      15.12500000      23.22500000      14.32315115
Al      17.15000000       5.00000000       5.00000000
Al      17.15000000       7.02500000       7.02500000
Al      19.17500000       5.00000000       7.02500000
Al      19.17500000       7.02500000       5.00000000
Al      17.19094229       5.01196193       9.44621616
Al      17.23855624       7.06186894      11.88803639
Al      19.24126138       5.01895821      11.89479117
Al      19.04947246       7.18313105       9.40645892
Al      17.15000000       5.00000000      14.32315115
Al      17.15000000       7.02500000      16.69762290
Al      19.17500000       5.00000000      16.69762290
Al      19.17500000       7.02500000      14.32315115
Al      17.15000000       9.05000000       5.00000000
Al      17.15000000      11.07500000       7.02500000
Al      19.17500000       9.05000000       7.02500000
Al      19.17500000      11.07500000       5.00000000
Al      17.06624750       9.15769905       9.41247063
Al      16.77463690      11.45036310      11.86100060
Al      18.79986070       9.42513930      11.85779076
Al      19.06730095      11.15875250       9.41247063
Al      17.15000000       9.05000000      14.32315115
Al      17.15000000      11.07500000      16.69762290
Al      19.17500000       9.05000000      16.69762290
Al      19.17500000      11.07500000      14.32315115
Al      17.15000000      13.10000000       5.00000000
Al      17.15000000      15.12500000       7.02500000
Al      19.17500000      13.10000000       7.02500000
Al      19.17500000      15.12500000       5.00000000
Al      17.09628359      13.16921303       9.41973978
Al      17.15824094      15.06208377      11.88881884
Al      19.19124040      13.02791336      11.89012922
Al      19.19016283      15.12513954       9.43849520
Al      17.15000000      13.10000000      14.32315115
Al      17.15000000      15.12500000      16.69762290
Al      19.17500000      13.10000000      16.69762290
Al      19.17500000      15.12500000      14.32315115
Al      17.15000000      17.15000000       5.00000000
Al      17.15000000      19.17500000       7.02500000
Al      19.17500000      17.15000000       7.02500000
Al      19.17500000      19.17500000       5.00000000
Al      17.04190381      17.01689262       9.45169876
Al      16.88843853      18.88680965      11.87901514
Al      19.12277362      17.13520268      11.90213213
Al      18.96050342      18.98891344       9.44549918
Al      17.15000000      17.15000000      14.32315115
Al      17.15000000      19.17500000      16.69762290
Al      19.17500000      17.15000000      16.69762290
Al      19.17500000      19.17500000      14.32315115
Al      17.15000000      21.20000000       5.00000000
Al      17.15000000      23.22500000       7.02500000
Al      19.17500000      21.20000000       7.02500000
Al      19.17500000      23.22500000       5.00000000
Al      17.13513022      21.12864064       9.41796901
Al      17.19200958      23.21329059      11.86812870
Al      18.90356499      20.92424377      11.87697803
Al      19.16724174      23.16849506       9.40497033
Al      17.15000000      21.20000000      14.32315115
Al      17.15000000      23.22500000      16.69762290
Al      19.17500000      21.20000000      16.69762290
Al      19.17500000      23.22500000      14.32315115
Al      21.20000000       5.00000000       5.00000000
Al      21.20000000       7.02500000       7.02500000
Al      23.22500000       5.00000000       7.02500000
Al      23.22500000       7.02500000       5.00000000
Al      20.99781330       5.15317925       9.37339735
Al      20.76802005       7.45697995      11.84259325
Al      22.71886884       5.50613116      11.79189815
Al      23.07182075       7.22718670       9.37339735
Al      21.20000000       5.00000000      14.32315115
Al      21.20000000       7.02500000      16.69762290
Al      23.22500000       5.00000000      16.69762290
Al      23.22500000       7.02500000      14.32315115
Al      21.20000000       9.05000000       5.00000000
Al      21.20000000      11.07500000       7.02500000
Al      23.22500000       9.05000000       7.02500000
Al      23.22500000      11.07500000       5.00000000
Al      21.04186895       9.17552754       9.40645892
Al      21.16313106      10.98644376      11.88803639
Al      23.20604179       8.98373862      11.89479117
Al      23.21303807      11.03405771       9.44621616
Al      21.20000000       9.05000000      14.32315115
Al      21.20000000      11.07500000      16.69762290
Al      23.22500000       9.05000000      16.69762290
Al      23.22500000      11.07500000      14.32315115
Al      21.20000000      13.10000000       5.00000000
Al      21.20000000      15.12500000       7.02500000
Al      23.22500000      13.10000000       7.02500000
Al      23.22500000      15.12500000       5.00000000
Al      21.14998774      13.05470198       9.43753273
Al      21.11595675      15.13708856      11.88702353
Al      23.13093469      13.08899067      11.87138879
Al      23.14129320      15.13466955       9.44343419
Al      21.20000000      13.10000000      14.32315115
Al      21.20000000      15.12500000      16.69762290
Al      23.22500000      13.10000000      16.69762290
Al      23.22500000      15.12500000      14.32315115
Al      21.20000000      17.15000000       5.00000000
Al      21.20000000      19.17500000       7.02500000
Al      23.22500000      17.15000000       7.02500000
Al      23.22500000      19.17500000       5.00000000
Al      21.14058322      17.20695867       9.44036412
Al      21.08330953      19.13486427      11.91221685
Al      23.16534468      17.17514431      11.86936917
Al      23.21231253      19.20665809       9.41964515
Al      21.20000000      17.15000000      14.32315115
Al      21.20000000      19.17500000      16.69762290
Al      23.22500000      17.15000000      16.69762290
Al      23.22500000      19.17500000      14.32315115
Al      21.20000000      21.20000000       5.00000000
Al      21.20000000      23.22500000       7.02500000
Al      23.22500000      21.20000000       7.02500000
Al      23.22500000      23.22500000       5.00000000
Al      20.90059422      20.89167886       9.46419657
Al      20.92511198      22.92491718      11.89788062
Al      23.15340764      21.02251421      11.93571265
Al      22.82458559      22.83413806       9.52789903
Al      21.20000000      21.20000000      14.32315115
Al      21.20000000      23.22500000      16.69762290
Al      23.22500000      21.20000000      16.69762290
Al      23.22500000      23.22500000      14.32315115
