299
Lattice="28.224999999999998 0.0 0.0 0.0 28.224999999999998 0.0 0.0 0.0 20.125" Properties=species:S:1:pos:R:3 energy=-16468.955609721514 pbc="T T T"
Al       5.00000000       5.00000000       5.00000000
Al       5.00000000       7.02500000       7.02500000
Al       7.02500000       5.00000000       7.02500000
Al       7.02500000       7.02500000       5.00000000
Al       5.02747262       5.02881748       9.16816343
Al       4.92857971       7.06938337      11.27808095
Al       7.06473928       4.91836029      11.27871959
Al       7.05695703       7.05627370       9.17084654
Al       5.00000000       5.00000000      13.38778092
Al       5.00000000       7.02500000      15.49500404
Al       7.02500000       5.00000000      15.49500404
Al       7.02500000       7.02500000      13.38778092
Al       5.00000000       9.05000000       5.00000000
Al       5.00000000      11.07500000       7.02500000
Al       7.02500000       9.05000000       7.02500000
Al       7.02500000      11.07500000       5.00000000
Al       4.86658904       9.04385904       9.12844110
Al       4.83884172      11.06197465      11.27649996
Al       7.02461120       9.07590573      11.25723526
Al       6.99382785      11.07755895       9.16250495
Al       5.00000000       9.05000000      13.38778092
Al       5.00000000      11.07500000      15.49500404
Al       7.02500000       9.05000000      15.49500404
Al       7.02500000      11.07500000      13.38778092
Al       5.00000000      13.10000000       5.00000000
Al       5.00000000      15.12500000       7.02500000
Al       7.02500000      13.10000000       7.02500000
Al       7.02500000      15.12500000       5.00000000
Al       4.83760068      13.09561797       9.13431661
Al       4.83915275      15.12807224      11.27681349
Al       6.97214397      13.09280427      11.24845704
Al       6.97661651      15.12825362       9.16119923
Al       5.00000000      13.10000000      13.38778092
Al       5.00000000      15.12500000      15.49500404
Al       7.02500000      13.10000000      15.49500404
Al       7.02500000      15.12500000      13.38778092
Al       5.00000000      17.15000000       5.00000000
Al       5.00000000      19.17500000       7.02500000
Al       7.02500000      17.15000000       7.02500000
Al       7.02500000      19.17500000       5.00000000
Al       4.84081159      17.16269236       9.13509565
Al       4.85609199      19.18481005      11.28544306
Al       6.97858318      17.15807690      11.25114841
Al       7.01974864      19.15713951       9.15855423
Al       5.00000000      17.15000000      13.38778092
Al       5.00000000      19.17500000      15.49500404
Al       7.02500000      17.15000000      15.49500404
Al       7.02500000      19.17500000      13.38778092
Al       5.00000000      21.20000000       5.00000000
Al       5.00000000      23.22500000       7.02500000
Al       7.02500000      21.20000000       7.02500000
Al       7.02500000      23.22500000       5.00000000
Al       4.92762295      21.15774817       9.13725849
Al       5.03185194      23.19314806      11.24912466
Al       7.06750944      21.15749056      11.24561830
Al       7.06725183      23.29737705       9.13725849
Al       5.00000000      21.20000000      13.38778092
Al       5.00000000      23.22500000      15.49500404
Al       7.02500000      21.20000000      15.49500404
Al       7.02500000      23.22500000      13.38778092
Al       9.05000000       5.00000000       5.00000000
Al       9.05000000       7.02500000       7.02500000
Al      11.07500000       5.00000000       7.02500000
Al      11.07500000       7.02500000       5.00000000
Al       9.04082134       4.85850580       9.12758145
Al       9.05949969       7.00803785      11.25661422
Al      11.06372190       4.84197727      11.27675619
Al      11.06882366       6.98353247       9.16020420
Al       9.05000000       5.00000000      13.38778092
Al       9.05000000       7.02500000      15.49500404
Al      11.07500000       5.00000000      15.49500404
Al      11.07500000       7.02500000      13.38778092
Al       9.05000000       9.05000000       5.00000000
Al       9.05000000      11.07500000       7.02500000
Al      11.07500000       9.05000000       7.02500000
Al      11.07500000      11.07500000       5.00000000
Al       9.06461047       9.06727332       9.14882334
Al       9.07587462      11.11346645      11.26803541
Al      11.07417843       9.03403589      11.26496443
Al      11.08767854      11.09146126       9.15704703
Al       9.05000000       9.05000000      13.38778092
Al       9.05000000      11.07500000      15.49500404
Al      11.07500000       9.05000000      15.49500404
Al      11.07500000      11.07500000      13.38778092
Al       9.05000000      13.10000000       5.00000000
Al       9.05000000      15.12500000       7.02500000
Al      11.07500000      13.10000000       7.02500000
Al      11.07500000      15.12500000       5.00000000
Al       9.04684133      13.11162285       9.15737159
Al       9.00812530      15.12569868      11.26786298
Al      11.16821102      13.19926429      11.27844777
Al      11.10092809      15.12501691       9.16278964
Al       9.05000000      13.10000000      13.38778092
Al       9.05000000      15.12500000      15.49500404
Al      11.07500000      13.10000000      15.49500404
Al      11.07500000      15.12500000      13.38778092
Al       9.05000000      17.15000000       5.00000000
Al       9.05000000      19.17500000       7.02500000
Al      11.07500000      17.15000000       7.02500000
Al      11.07500000      19.17500000       5.00000000
Al       9.05687457      17.13474152       9.15593017
Al       9.09476340      19.13023660      11.26817304
Al      11.17630946      17.04869054      11.27799237
Al      11.09025848      19.16812543       9.15593017
Al       9.05000000      17.15000000      13.38778092
Al       9.05000000      19.17500000      15.49500404
Al      11.07500000      17.15000000      15.49500404
Al      11.07500000      19.17500000      13.38778092
Al       9.05000000      21.20000000       5.00000000
Al       9.05000000      23.22500000       7.02500000
Al      11.07500000      21.20000000       7.02500000
Al      11.07500000      23.22500000       5.00000000
Al       9.06786049      21.20525136       9.15855423
Al       9.04018995      23.36890801      11.28544306
Al      11.06692310      21.24641682      11.25114841
Al      11.06230764      23.38418841       9.13509565
Al       9.05000000      21.20000000      13.38778092
Al       9.05000000      23.22500000      15.49500404
Al      11.07500000      21.20000000      15.49500404
Al      11.07500000      23.22500000      13.38778092
Al      13.10000000       5.00000000       5.00000000
Al      13.10000000       7.02500000       7.02500000
Al      15.12500000       5.00000000       7.02500000
Al      15.12500000       7.02500000       5.00000000
Al      13.09687394       4.84033513       9.13536003
Al      13.09690302       6.97878444      11.24937621
Al      15.12830094       4.83899577      11.27748243
Al      15.12995185       6.97702076       9.16286174
Al      13.10000000       5.00000000      13.38778092
Al      13.10000000       7.02500000      15.49500404
Al      15.12500000       5.00000000      15.49500404
Al      15.12500000       7.02500000      13.38778092
Al      13.10000000       9.05000000       5.00000000
Al      13.10000000      11.07500000       7.02500000
Al      15.12500000       9.05000000       7.02500000
Al      15.12500000      11.07500000       5.00000000
Al      13.09901867       9.02722471       9.14548163
Al      13.10082671      11.04584608      11.26880719
Al      15.13017471       9.02336482      11.26383262
Al      15.11210509      11.08499144       9.15720908
Al      13.10000000       9.05000000      13.38778092
Al      13.10000000      11.07500000      15.49500404
Al      15.12500000       9.05000000      15.49500404
Al      15.12500000      11.07500000      13.38778092
Al      13.10000000      13.10000000       5.00000000
Al      13.10000000      15.12500000       7.02500000
Al      15.12500000      13.10000000       7.02500000
Al      15.12500000      15.12500000       5.00000000
Al      13.09845442      13.13257266       9.16418042
Al      15.02597106      13.19902894      11.27863642
Al      15.09242734      15.12654558       9.16418042
Al      13.10000000      13.10000000      13.38778092
Al      13.10000000      15.12500000      15.49500404
Al      15.12500000      13.10000000      15.49500404
Al      15.12500000      15.12500000      13.38778092
Al      13.10000000      17.15000000       5.00000000
Al      13.10000000      19.17500000       7.02500000
Al      15.12500000      17.15000000       7.02500000
Al      15.12500000      19.17500000       5.00000000
Al      13.09998309      17.12407191       9.16278964
Al      13.09930132      19.21687470      11.26786298
Al      15.02573571      17.05678898      11.27844777
Al      15.11337715      19.17815867       9.15737159
Al      13.10000000      17.15000000      13.38778092
Al      13.10000000      19.17500000      15.49500404
Al      15.12500000      17.15000000      15.49500404
Al      15.12500000      19.17500000      13.38778092
Al      13.10000000      21.20000000       5.00000000
Al      13.10000000      23.22500000       7.02500000
Al      15.12500000      21.20000000       7.02500000
Al      15.12500000      23.22500000       5.00000000
Al      13.09674638      21.24838349       9.16119923
Al      13.09692776      23.38584725      11.27681349
Al      15.13219573      21.25285603      11.24845704
Al      15.12938203      23.38739932       9.13431661
Al      13.10000000      21.20000000      13.38778092
Al      13.10000000      23.22500000      15.49500404
Al      15.12500000      21.20000000      15.49500404
Al      15.12500000      23.22500000      13.38778092
Al      17.15000000       5.00000000       5.00000000
Al      17.15000000       7.02500000       7.02500000
Al      19.17500000       5.00000000       7.02500000
Al      19.17500000       7.02500000       5.00000000
Al      17.16242124       4.84131771       9.13573397
Al      17.15664901       6.98187501      11.25182628
Al      19.18410328       4.85787603      11.28567294
Al      19.16131075       7.01413403       9.15735764
Al      17.15000000       5.00000000      13.38778092
Al      17.15000000       7.02500000      15.49500404
Al      19.17500000       5.00000000      15.49500404
Al      19.17500000       7.02500000      13.38778092
Al      17.15000000       9.05000000       5.00000000
Al      17.15000000      11.07500000       7.02500000
Al      19.17500000       9.05000000       7.02500000
Al      19.17500000      11.07500000       5.00000000
Al      17.14089739       9.04886636       9.14889652
Al      17.11412953      11.11087047      11.26781752
Al      19.15266139       9.07233861      11.26612360
Al      19.17613364      11.08410261       9.14889652
Al      17.15000000       9.05000000      13.38778092
Al      17.15000000      11.07500000      15.49500404
Al      19.17500000       9.05000000      15.49500404
Al      19.17500000      11.07500000      13.38778092
Al      17.15000000      13.10000000       5.00000000
Al      17.15000000      15.12500000       7.02500000
Al      19.17500000      13.10000000       7.02500000
Al      19.17500000      15.12500000       5.00000000
Al      17.14000856      13.11289491       9.15720908
Al      17.17915392      15.12417329      11.26880719
Al      19.20163518      13.09482529      11.26383262
Al      19.19777529      15.12598133       9.14548163
Al      17.15000000      13.10000000      13.38778092
Al      17.15000000      15.12500000      15.49500404
Al      19.17500000      13.10000000      15.49500404
Al      19.17500000      15.12500000      13.38778092
Al      17.15000000      17.15000000       5.00000000
Al      17.15000000      19.17500000       7.02500000
Al      19.17500000      17.15000000       7.02500000
Al      19.17500000      19.17500000       5.00000000
Al      17.13353874      17.13732146       9.15704703
Al      17.11153355      19.14912538      11.26803541
Al      19.19096411      17.15082157      11.26496443
Al      19.15772668      19.16038953       9.14882334
Al      17.15000000      17.15000000      13.38778092
Al      17.15000000      19.17500000      15.49500404
Al      19.17500000      17.15000000      15.49500404
Al      19.17500000      19.17500000      13.38778092
Al      17.15000000      21.20000000       5.00000000
Al      17.15000000      23.22500000       7.02500000
Al      19.17500000      21.20000000       7.02500000
Al      19.17500000      23.22500000       5.00000000
Al      17.14744105      21.23117215       9.16250495
Al      17.16302535      23.38615828      11.27649996
Al      19.14909427      21.20038880      11.25723526
Al      19.18114096      23.35841096       9.12844110
Al      17.15000000      21.20000000      13.38778092
Al      17.15000000      23.22500000      15.49500404
Al      19.17500000      21.20000000      15.49500404
Al      19.17500000      23.22500000      13.38778092
Al      21.20000000       5.00000000       5.00000000
Al      21.20000000       7.02500000       7.02500000
Al      23.22500000       5.00000000       7.02500000
Al      23.22500000       7.02500000       5.00000000
Al      21.16015683       4.92356677       9.13721092
Al      21.16686631       7.05813369      11.24516310
Al      23.19738381       5.02761619      11.25026354
Al      23.30143323       7.06484317       9.13721092
Al      21.20000000       5.00000000      13.38778092
Al      21.20000000       7.02500000      15.49500404
Al      23.22500000       5.00000000      15.49500404
Al      23.22500000       7.02500000      13.38778092
Al      21.20000000       9.05000000       5.00000000
Al      21.20000000      11.07500000       7.02500000
Al      23.22500000       9.05000000       7.02500000
Al      23.22500000      11.07500000       5.00000000
Al      21.21086597       9.06368925       9.15735764
Al      21.24312499      11.06835099      11.25182628
Al      23.36712397       9.04089672      11.28567294
Al      23.38368229      11.06257876       9.13573397
Al      21.20000000       9.05000000      13.38778092
Al      21.20000000      11.07500000      15.49500404
Al      23.22500000       9.05000000      15.49500404
Al      23.22500000      11.07500000      13.38778092
Al      21.20000000      13.10000000       5.00000000
Al      21.20000000      15.12500000       7.02500000
Al      23.22500000      13.10000000       7.02500000
Al      23.22500000      15.12500000       5.00000000
Al      21.24797924      13.09504815       9.16286174
Al      21.24621556      15.12809698      11.24937621
Al      23.38600423      13.09669906      11.27748243
Al      23.38466487      15.12812606       9.13536003
Al      21.20000000      13.10000000      13.38778092
Al      21.20000000      15.12500000      15.49500404
Al      23.22500000      13.10000000      15.49500404
Al      23.22500000      15.12500000      13.38778092
Al      21.20000000      17.15000000       5.00000000
Al      21.20000000      19.17500000       7.02500000
Al      23.22500000      17.15000000       7.02500000
Al      23.22500000      19.17500000       5.00000000
Al      21.24146753      17.15617634       9.16020420
Al      21.21696215      19.16550031      11.25661422
Al      23.38302273      17.16127810      11.27675619
Al      23.36649420      19.18417866       9.12758145
Al      21.20000000      17.15000000      13.38778092
Al      21.20000000      19.17500000      15.49500404
Al      23.22500000      17.15000000      15.49500404
Al      23.22500000      19.17500000      13.38778092
Al      21.20000000      21.20000000       5.00000000
Al      21.20000000      23.22500000       7.02500000
Al      23.22500000      21.20000000       7.02500000
Al      23.22500000      23.22500000       5.00000000
Al      21.16872630      21.16804297       9.17084654
Al      21.15561663      23.29642029      11.27808095
Al      23.30663971      21.16026072      11.27871959
Al      23.19618252      23.19752738       9.16816343
Al      21.20000000      21.20000000      13.38778092
Al      21.20000000      23.22500000      15.49500404
Al      23.22500000      21.20000000      15.49500404
Al      23.22500000      23.22500000      13.38778092
