299
Lattice="28.224999999999998 0.0 0.0 0.0 28.224999999999998 0.0 0.0 0.0 20.125" Properties=species:S:1:pos:R:3 energy=-16384.738979880454 pbc="T T T"
Al       5.00000000       5.00000000       5.00000000
Al       5.00000000       7.02500000       7.02500000
Al       7.02500000       5.00000000       7.02500000
Al       7.02500000       7.02500000       5.00000000
Al       5.84535711       5.81371456       9.78965359
Al       5.49688841       7.43247536      12.56534503
Al       7.51014207       5.31822750      12.49574625
Al       7.86457380       7.59081727       9.92900615
Al       5.00000000       5.00000000      15.28443042
Al       5.00000000       7.02500000      17.93355340
Al       7.02500000       5.00000000      17.93355340
Al       7.02500000       7.02500000      15.28443042
Al       5.00000000       9.05000000       5.00000000
Al       5.00000000      11.07500000       7.02500000
Al       7.02500000       9.05000000       7.02500000
Al       7.02500000      11.07500000       5.00000000
Al       5.44329054       9.09782440       9.73007461
Al       5.24598805      11.13005303      12.51125175
Al       7.47624248       9.38861588      12.49431466
Al       7.03404749      11.54987026       9.78273333
Al       5.00000000       9.05000000      15.28443042
Al       5.00000000      11.07500000      17.93355340
Al       7.02500000       9.05000000      17.93355340
Al       7.02500000      11.07500000      15.28443042
Al       5.00000000      13.10000000       5.00000000
Al       5.00000000      15.12500000       7.02500000
Al       7.02500000      13.10000000       7.02500000
Al       7.02500000      15.12500000       5.00000000
Al       5.03221197      13.55783897       9.85631213
Al       5.07736594      15.44512228      12.65629219
Al       7.00822687      13.42116371      12.62054954
Al       7.66486443      14.72307196       9.82372861
Al       5.00000000      13.10000000      15.28443042
Al       5.00000000      15.12500000      17.93355340
Al       7.02500000      13.10000000      17.93355340
Al       7.02500000      15.12500000      15.28443042
Al       5.00000000      17.15000000       5.00000000
Al       5.00000000      19.17500000       7.02500000
Al       7.02500000      17.15000000       7.02500000
Al       7.02500000      19.17500000       5.00000000
Al       5.59608082      16.77893176       9.78471334
Al       5.57479162      18.81545821      12.46045050
Al       7.62003673      16.79018985      12.45975223
Al       7.05662662      19.23072580       9.63526130
Al       5.00000000      17.15000000      15.28443042
Al       5.00000000      19.17500000      17.93355340
Al       7.02500000      17.15000000      17.93355340
Al       7.02500000      19.17500000      15.28443042
Al       5.00000000      21.20000000       5.00000000
Al       5.00000000      23.22500000       7.02500000
Al       7.02500000      21.20000000       7.02500000
Al       7.02500000      23.22500000       5.00000000
Al       5.07083045      21.09950761       9.51074238
Al       6.62303757      21.60196243      12.41225319
Al       8.63691935      19.58808065      12.47591663
Al       7.12549239      23.15416955       9.51074238
Al       5.00000000      21.20000000      15.28443042
Al       5.00000000      23.22500000      17.93355340
Al       7.02500000      21.20000000      17.93355340
Al       7.02500000      23.22500000      15.28443042
Al       9.05000000       5.00000000       5.00000000
Al       9.05000000       7.02500000       7.02500000
Al      11.07500000       5.00000000       7.02500000
Al      11.07500000       7.02500000       5.00000000
Al       9.26524154       5.16022041       9.66765393
Al       9.36644739       7.36111181      12.70151339
Al      11.08957376       5.16311102      12.50351164
Al      10.92217990       7.58466447       9.85146397
Al       9.05000000       5.00000000      15.28443042
Al       9.05000000       7.02500000      17.93355340
Al      11.07500000       5.00000000      17.93355340
Al      11.07500000       7.02500000      15.28443042
Al       9.05000000       9.05000000       5.00000000
Al       9.05000000      11.07500000       7.02500000
Al      11.07500000       9.05000000       7.02500000
Al      11.07500000      11.07500000       5.00000000
Al       9.22160578       9.87673732       9.86795393
Al       9.07788337      11.61240691      12.64929455
Al      11.00589999       9.59542304      12.53462317
Al      11.81517067      10.77486933       9.78040938
Al       9.05000000       9.05000000      15.28443042
Al       9.05000000      11.07500000      17.93355340
Al      11.07500000       9.05000000      17.93355340
Al      11.07500000      11.07500000      15.28443042
Al       9.05000000      13.10000000       5.00000000
Al       9.05000000      15.12500000       7.02500000
Al      11.07500000      13.10000000       7.02500000
Al      11.07500000      15.12500000       5.00000000
Al       9.72108215      12.76221028       9.80231094
Al       9.58894197      14.76320918      12.53877630
Al      11.64882712      12.80125751      12.46147001
Al      10.89695059      15.34125233       9.69220863
Al       9.05000000      13.10000000      15.28443042
Al       9.05000000      15.12500000      17.93355340
Al      11.07500000      13.10000000      17.93355340
Al      11.07500000      15.12500000      15.28443042
Al       9.05000000      17.15000000       5.00000000
Al       9.05000000      19.17500000       7.02500000
Al      11.07500000      17.15000000       7.02500000
Al      11.07500000      19.17500000       5.00000000
Al       8.93918191      17.27659483       9.60100523
Al      10.64097021      17.58402979      12.37916887
Al      12.63521187      15.58978813      12.45952205
Al      10.94840517      19.28581809       9.60100523
Al       9.05000000      17.15000000      15.28443042
Al       9.05000000      19.17500000      17.93355340
Al      11.07500000      17.15000000      17.93355340
Al      11.07500000      19.17500000      15.28443042
Al       9.05000000      21.20000000       5.00000000
Al       9.05000000      23.22500000       7.02500000
Al      11.07500000      21.20000000       7.02500000
Al      11.07500000      23.22500000       5.00000000
Al       8.99427420      21.16837338       9.63526130
Al       9.40954179      22.65020838      12.46045050
Al      11.43481015      20.60496327      12.45975223
Al      11.44606824      22.62891918       9.78471334
Al       9.05000000      21.20000000      15.28443042
Al       9.05000000      23.22500000      17.93355340
Al      11.07500000      21.20000000      17.93355340
Al      11.07500000      23.22500000      15.28443042
Al      13.10000000       5.00000000       5.00000000
Al      13.10000000       7.02500000       7.02500000
Al      15.12500000       5.00000000       7.02500000
Al      15.12500000       7.02500000       5.00000000
Al      12.95752222       5.56268718       9.80249015
Al      12.85342795       7.44853417      12.63532817
Al      15.02131199       5.51701073      12.48657504
Al      15.64301967       6.81084747       9.66041017
Al      13.10000000       5.00000000      15.28443042
Al      13.10000000       7.02500000      17.93355340
Al      15.12500000       5.00000000      17.93355340
Al      15.12500000       7.02500000      15.28443042
Al      13.10000000       9.05000000       5.00000000
Al      13.10000000      11.07500000       7.02500000
Al      15.12500000       9.05000000       7.02500000
Al      15.12500000      11.07500000       5.00000000
Al      13.62881690       8.68776992       9.82995711
Al      13.59804741      10.79395867      12.57288972
Al      15.47348835       8.76823080      12.53680541
Al      14.85016779      11.35787982       9.69434117
Al      13.10000000       9.05000000      15.28443042
Al      13.10000000      11.07500000      17.93355340
Al      15.12500000       9.05000000      17.93355340
Al      15.12500000      11.07500000      15.28443042
Al      13.10000000      13.10000000       5.00000000
Al      13.10000000      15.12500000       7.02500000
Al      15.12500000      13.10000000       7.02500000
Al      15.12500000      15.12500000       5.00000000
Al      12.87688047      13.37600345       9.61513567
Al      14.63446859      13.59053141      12.35015204
Al      14.84899655      15.34811953       9.61513567
Al      13.10000000      13.10000000      15.28443042
Al      13.10000000      15.12500000      17.93355340
Al      15.12500000      13.10000000      17.93355340
Al      15.12500000      15.12500000      15.28443042
Al      13.10000000      17.15000000       5.00000000
Al      13.10000000      19.17500000       7.02500000
Al      15.12500000      17.15000000       7.02500000
Al      15.12500000      19.17500000       5.00000000
Al      12.88374767      17.32804941       9.69220863
Al      13.46179082      18.63605803      12.53877630
Al      15.42374249      16.57617288      12.46147001
Al      15.46278972      18.50391785       9.80231094
Al      13.10000000      17.15000000      15.28443042
Al      13.10000000      19.17500000      17.93355340
Al      15.12500000      17.15000000      17.93355340
Al      15.12500000      19.17500000      15.28443042
Al      13.10000000      21.20000000       5.00000000
Al      13.10000000      23.22500000       7.02500000
Al      15.12500000      21.20000000       7.02500000
Al      15.12500000      23.22500000       5.00000000
Al      13.50192804      20.56013557       9.82372861
Al      12.77987772      23.14763406      12.65629219
Al      14.80383629      21.21677313      12.62054954
Al      14.66716103      23.19278803       9.85631213
Al      13.10000000      21.20000000      15.28443042
Al      13.10000000      23.22500000      17.93355340
Al      15.12500000      21.20000000      17.93355340
Al      15.12500000      23.22500000      15.28443042
Al      17.15000000       5.00000000       5.00000000
Al      17.15000000       7.02500000       7.02500000
Al      19.17500000       5.00000000       7.02500000
Al      19.17500000       7.02500000       5.00000000
Al      17.65828615       4.86743731       9.94297023
Al      17.54474119       6.96633896      12.53851026
Al      19.48065050       4.99422528      12.69495425
Al      18.81907404       7.43502531       9.64889944
Al      17.15000000       5.00000000      15.28443042
Al      17.15000000       7.02500000      17.93355340
Al      19.17500000       5.00000000      17.93355340
Al      19.17500000       7.02500000      15.28443042
Al      17.15000000       9.05000000       5.00000000
Al      17.15000000      11.07500000       7.02500000
Al      19.17500000       9.05000000       7.02500000
Al      19.17500000      11.07500000       5.00000000
Al      16.83121938       9.39475074       9.72557112
Al      16.61285322      11.61214678      12.44212519
Al      18.54665042       9.67834958      12.41777178
Al      18.83024926      11.39378062       9.72557112
Al      17.15000000       9.05000000      15.28443042
Al      17.15000000      11.07500000      17.93355340
Al      19.17500000       9.05000000      17.93355340
Al      19.17500000      11.07500000      15.28443042
Al      17.15000000      13.10000000       5.00000000
Al      17.15000000      15.12500000       7.02500000
Al      19.17500000      13.10000000       7.02500000
Al      19.17500000      15.12500000       5.00000000
Al      16.86712018      13.37483221       9.69434117
Al      17.43104133      14.62695259      12.57288972
Al      19.45676920      12.75151165      12.53680541
Al      19.53723008      14.59618310       9.82995711
Al      17.15000000      13.10000000      15.28443042
Al      17.15000000      15.12500000      17.93355340
Al      19.17500000      13.10000000      17.93355340
Al      19.17500000      15.12500000      15.28443042
Al      17.15000000      17.15000000       5.00000000
Al      17.15000000      19.17500000       7.02500000
Al      19.17500000      17.15000000       7.02500000
Al      19.17500000      19.17500000       5.00000000
Al      17.45013067      16.40982933       9.78040938
Al      16.61259309      19.14711663      12.64929455
Al      18.62957696      17.21910001      12.53462317
Al      18.34826268      19.00339422       9.86795393
Al      17.15000000      17.15000000      15.28443042
Al      17.15000000      19.17500000      17.93355340
Al      19.17500000      17.15000000      17.93355340
Al      19.17500000      19.17500000      15.28443042
Al      17.15000000      21.20000000       5.00000000
Al      17.15000000      23.22500000       7.02500000
Al      19.17500000      21.20000000       7.02500000
Al      19.17500000      23.22500000       5.00000000
Al      16.67512974      21.19095251       9.78273333
Al      17.09494697      22.97901195      12.51125175
Al      18.83638412      20.74875752      12.49431466
Al      19.12717560      22.78170946       9.73007461
Al      17.15000000      21.20000000      15.28443042
Al      17.15000000      23.22500000      17.93355340
Al      19.17500000      21.20000000      17.93355340
Al      19.17500000      23.22500000      15.28443042
Al      21.20000000       5.00000000       5.00000000
Al      21.20000000       7.02500000       7.02500000
Al      23.22500000       5.00000000       7.02500000
Al      23.22500000       7.02500000       5.00000000
Al      20.78051020       5.41448162       9.74316412
Al      20.49277008       7.73222992      12.31903856
Al      22.43080339       5.79419661      12.48839952
Al      22.81051838       7.44448980       9.74316412
Al      21.20000000       5.00000000      15.28443042
Al      21.20000000       7.02500000      17.93355340
Al      23.22500000       5.00000000      17.93355340
Al      23.22500000       7.02500000      15.28443042
Al      21.20000000       9.05000000       5.00000000
Al      21.20000000      11.07500000       7.02500000
Al      23.22500000       9.05000000       7.02500000
Al      23.22500000      11.07500000       5.00000000
Al      20.78997469       9.40592596       9.64889944
Al      21.25866104      10.68025881      12.53851026
Al      23.23077472       8.74434950      12.69495425
Al      23.35756269      10.56671385       9.94297023
Al      21.20000000       9.05000000      15.28443042
Al      21.20000000      11.07500000      17.93355340
Al      23.22500000       9.05000000      17.93355340
Al      23.22500000      11.07500000      15.28443042
Al      21.20000000      13.10000000       5.00000000
Al      21.20000000      15.12500000       7.02500000
Al      23.22500000      13.10000000       7.02500000
Al      23.22500000      15.12500000       5.00000000
Al      21.41415253      12.58198033       9.66041017
Al      20.77646583      15.37157205      12.63532817
Al      22.70798927      13.20368801      12.48657504
Al      22.66231282      15.26747778       9.80249015
Al      21.20000000      13.10000000      15.28443042
Al      21.20000000      15.12500000      17.93355340
Al      23.22500000      13.10000000      17.93355340
Al      23.22500000      15.12500000      15.28443042
Al      21.20000000      17.15000000       5.00000000
Al      21.20000000      19.17500000       7.02500000
Al      23.22500000      17.15000000       7.02500000
Al      23.22500000      19.17500000       5.00000000
Al      20.64033553      17.30282010       9.85146397
Al      20.86388819      18.85855261      12.70151339
Al      23.06188898      17.13542624      12.50351164
Al      23.06477959      18.95975846       9.66765393
Al      21.20000000      17.15000000      15.28443042
Al      21.20000000      19.17500000      17.93355340
Al      23.22500000      17.15000000      17.93355340
Al      23.22500000      19.17500000      15.28443042
Al      21.20000000      21.20000000       5.00000000
Al      21.20000000      23.22500000       7.02500000
Al      23.22500000      21.20000000       7.02500000
Al      23.22500000      23.22500000       5.00000000
Al      20.63418273      20.36042620       9.92900615
Al      20.79252464      22.72811159      12.56534503
Al      22.90677250      20.71485793      12.49574625
Al      22.41128544      22.37964289       9.78965359
Al      21.20000000      21.20000000      15.28443042
Al      21.20000000      23.22500000      17.93355340
Al      23.22500000      21.20000000      17.93355340
Al      23.22500000      23.22500000      15.28443042
