299
Lattice="28.224999999999998 0.0 0.0 0.0 28.224999999999998 0.0 0.0 0.0 20.125" Properties=species:S:1:pos:R:3 energy=-16368.865222077075 pbc="T T T"
Al       5.00000000       5.00000000       5.00000000
Al       5.00000000       7.02500000       7.02500000
Al       7.02500000       5.00000000       7.02500000
Al       7.02500000       7.02500000       5.00000000
Al       6.63232295       6.51934549       9.42525105
Al       5.75717316       7.49990469      12.74966381
Al       7.68283928       5.29528423      12.62684978
Al       8.45516820       7.69484010      11.06354450
Al       5.00000000       5.00000000      15.56537919
Al       5.00000000       7.02500000      18.29477324
Al       7.02500000       5.00000000      18.29477324
Al       7.02500000       7.02500000      15.56537919
Al       5.00000000       9.05000000       5.00000000
Al       5.00000000      11.07500000       7.02500000
Al       7.02500000       9.05000000       7.02500000
Al       7.02500000      11.07500000       5.00000000
Al       5.96570174       9.25364204       9.98472819
Al       5.51608556      11.26934746      12.58218329
Al       7.62788541       9.51277325      13.08824119
Al       7.28815629      11.70406267       9.85611618
Al       5.00000000       9.05000000      15.56537919
Al       5.00000000      11.07500000      18.29477324
Al       7.02500000       9.05000000      18.29477324
Al       7.02500000      11.07500000      15.56537919
Al       5.00000000      13.10000000       5.00000000
Al       5.00000000      15.12500000       7.02500000
Al       7.02500000      13.10000000       7.02500000
Al       7.02500000      15.12500000       5.00000000
Al       5.23868030      13.65389057       9.95893453
Al       4.99034642      15.80347717      12.75239459
Al       6.86510651      13.79380490      12.92591696
Al       7.99419862      14.60509072      10.11741806
Al       5.00000000      13.10000000      15.56537919
Al       5.00000000      15.12500000      18.29477324
Al       7.02500000      13.10000000      18.29477324
Al       7.02500000      15.12500000      15.56537919
Al       5.00000000      17.15000000       5.00000000
Al       5.00000000      19.17500000       7.02500000
Al       7.02500000      17.15000000       7.02500000
Al       7.02500000      19.17500000       5.00000000
Al       5.80691675      16.65909671       9.75679886
Al       5.62651650      18.83978749      12.85435846
Al       7.66490793      16.85305036      12.37819173
Al       7.19896031      19.11378130      10.14568743
Al       5.00000000      17.15000000      15.56537919
Al       5.00000000      19.17500000      18.29477324
Al       7.02500000      17.15000000      18.29477324
Al       7.02500000      19.17500000      15.56537919
Al       5.00000000      21.20000000       5.00000000
Al       5.00000000      23.22500000       7.02500000
Al       7.02500000      21.20000000       7.02500000
Al       7.02500000      23.22500000       5.00000000
Al       5.22352196      20.95620765       9.48554166
Al       6.69405301      21.53094699      12.44834010
Al       8.70535060      19.51964940      13.08527974
Al       7.26879235      23.00147804       9.48554166
Al       5.00000000      21.20000000      15.56537919
Al       5.00000000      23.22500000      18.29477324
Al       7.02500000      21.20000000      18.29477324
Al       7.02500000      23.22500000      15.56537919
Al       9.05000000       5.00000000       5.00000000
Al       9.05000000       7.02500000       7.02500000
Al      11.07500000       5.00000000       7.02500000
Al      11.07500000       7.02500000       5.00000000
Al       9.39014192       5.36458636       9.55475293
Al       9.41022509       7.29675046      13.50308855
Al      11.13633968       5.44822213      12.24767288
Al      11.18009957       7.63447268       9.83763424
Al       9.05000000       5.00000000      15.56537919
Al       9.05000000       7.02500000      18.29477324
Al      11.07500000       5.00000000      18.29477324
Al      11.07500000       7.02500000      15.56537919
Al       9.05000000       9.05000000       5.00000000
Al       9.05000000      11.07500000       7.02500000
Al      11.07500000       9.05000000       7.02500000
Al      11.07500000      11.07500000       5.00000000
Al       9.08633556       9.55324011       9.28828965
Al       8.83952437      11.96208214      12.62010788
Al      10.57761435       9.75727177      12.26013850
Al      11.96189339      10.48024976       9.67204372
Al       9.05000000       9.05000000      15.56537919
Al       9.05000000      11.07500000      18.29477324
Al      11.07500000       9.05000000      18.29477324
Al      11.07500000      11.07500000      15.56537919
Al       9.05000000      13.10000000       5.00000000
Al       9.05000000      15.12500000       7.02500000
Al      11.07500000      13.10000000       7.02500000
Al      11.07500000      15.12500000       5.00000000
Al      10.00062735      12.48833376       9.79616153
Al       9.58696695      14.92548395      12.95977569
Al      11.56079967      12.88751003      12.60198110
Al      10.97599143      15.23061017       9.89319839
Al       9.05000000      13.10000000      15.56537919
Al       9.05000000      15.12500000      18.29477324
Al      11.07500000      13.10000000      18.29477324
Al      11.07500000      15.12500000      15.56537919
Al       9.05000000      17.15000000       5.00000000
Al       9.05000000      19.17500000       7.02500000
Al      11.07500000      17.15000000       7.02500000
Al      11.07500000      19.17500000       5.00000000
Al       8.99611104      17.18537425       9.33154528
Al      10.57462776      17.65037224      11.95635988
Al      12.54711070      15.67788930      12.82239915
Al      11.03962575      19.22888896       9.33154528
Al       9.05000000      17.15000000      15.56537919
Al       9.05000000      19.17500000      18.29477324
Al      11.07500000      17.15000000      18.29477324
Al      11.07500000      19.17500000      15.56537919
Al       9.05000000      21.20000000       5.00000000
Al       9.05000000      23.22500000       7.02500000
Al      11.07500000      21.20000000       7.02500000
Al      11.07500000      23.22500000       5.00000000
Al       9.11121870      21.02603969      10.14568743
Al       9.38521251      22.59848350      12.85435846
Al      11.37194964      20.56009207      12.37819173
Al      11.56590329      22.41808325       9.75679886
Al       9.05000000      21.20000000      15.56537919
Al       9.05000000      23.22500000      18.29477324
Al      11.07500000      21.20000000      18.29477324
Al      11.07500000      23.22500000      15.56537919
Al      13.10000000       5.00000000       5.00000000
Al      13.10000000       7.02500000       7.02500000
Al      15.12500000       5.00000000       7.02500000
Al      15.12500000       7.02500000       5.00000000
Al      13.03165539       5.48977090       9.64781187
Al      12.52158470       7.81705256      13.04120503
Al      14.65950771       5.95396986      12.45662096
Al      15.64066547       6.82229275       9.39811539
Al      13.10000000       5.00000000      15.56537919
Al      13.10000000       7.02500000      18.29477324
Al      15.12500000       5.00000000      18.29477324
Al      15.12500000       7.02500000      15.56537919
Al      13.10000000       9.05000000       5.00000000
Al      13.10000000      11.07500000       7.02500000
Al      15.12500000       9.05000000       7.02500000
Al      15.12500000      11.07500000       5.00000000
Al      13.88433587       8.57431953      10.52509365
Al      13.43677778      10.82265927      12.69488921
Al      15.41865962       8.91174960      13.17187482
Al      14.96802912      11.19746571       9.58290434
Al      13.10000000       9.05000000      15.56537919
Al      13.10000000      11.07500000      18.29477324
Al      15.12500000       9.05000000      18.29477324
Al      15.12500000      11.07500000      15.56537919
Al      13.10000000      13.10000000       5.00000000
Al      13.10000000      15.12500000       7.02500000
Al      15.12500000      13.10000000       7.02500000
Al      15.12500000      15.12500000       5.00000000
Al      12.98105306      13.22764145       9.66224803
Al      14.58410551      13.64089449      12.49962649
Al      14.99735855      15.24394694       9.66224803
Al      13.10000000      13.10000000      15.56537919
Al      13.10000000      15.12500000      18.29477324
Al      15.12500000      13.10000000      18.29477324
Al      15.12500000      15.12500000      15.56537919
Al      13.10000000      17.15000000       5.00000000
Al      13.10000000      19.17500000       7.02500000
Al      15.12500000      17.15000000       7.02500000
Al      15.12500000      19.17500000       5.00000000
Al      12.99438983      17.24900857       9.89319839
Al      13.29951605      18.63803305      12.95977569
Al      15.33748997      16.66420033      12.60198110
Al      15.73666624      18.22437265       9.79616153
Al      13.10000000      17.15000000      15.56537919
Al      13.10000000      19.17500000      18.29477324
Al      15.12500000      17.15000000      18.29477324
Al      15.12500000      19.17500000      15.56537919
Al      13.10000000      21.20000000       5.00000000
Al      13.10000000      23.22500000       7.02500000
Al      15.12500000      21.20000000       7.02500000
Al      15.12500000      23.22500000       5.00000000
Al      13.61990928      20.23080138      10.11741806
Al      12.42152283      23.23465358      12.75239459
Al      14.43119510      21.35989349      12.92591696
Al      14.57110943      22.98631970       9.95893453
Al      13.10000000      21.20000000      15.56537919
Al      13.10000000      23.22500000      18.29477324
Al      15.12500000      21.20000000      18.29477324
Al      15.12500000      23.22500000      15.56537919
Al      17.15000000       5.00000000       5.00000000
Al      17.15000000       7.02500000       7.02500000
Al      19.17500000       5.00000000       7.02500000
Al      19.17500000       7.02500000       5.00000000
Al      17.66403574       4.94224683      10.09002113
Al      17.37056518       7.10040737      12.28982388
Al      19.35012052       5.27565829      12.99530809
Al      18.82266051       7.39207094       9.32823897
Al      17.15000000       5.00000000      15.56537919
Al      17.15000000       7.02500000      18.29477324
Al      19.17500000       5.00000000      18.29477324
Al      19.17500000       7.02500000      15.56537919
Al      17.15000000       9.05000000       5.00000000
Al      17.15000000      11.07500000       7.02500000
Al      19.17500000       9.05000000       7.02500000
Al      19.17500000      11.07500000       5.00000000
Al      16.94185183       9.29048378      10.22043457
Al      16.59909371      11.62590629      12.47523375
Al      18.57600117       9.64899883      13.09509130
Al      18.93451622      11.28314817      10.22043457
Al      17.15000000       9.05000000      15.56537919
Al      17.15000000      11.07500000      18.29477324
Al      19.17500000       9.05000000      18.29477324
Al      19.17500000      11.07500000      15.56537919
Al      17.15000000      13.10000000       5.00000000
Al      17.15000000      15.12500000       7.02500000
Al      19.17500000      13.10000000       7.02500000
Al      19.17500000      15.12500000       5.00000000
Al      17.02753429      13.25697088       9.58290434
Al      17.40234073      14.78822222      12.69488921
Al      19.31325040      12.80634038      13.17187482
Al      19.65068047      14.34066413      10.52509365
Al      17.15000000      13.10000000      15.56537919
Al      17.15000000      15.12500000      18.29477324
Al      19.17500000      13.10000000      18.29477324
Al      19.17500000      15.12500000      15.56537919
Al      17.15000000      17.15000000       5.00000000
Al      17.15000000      19.17500000       7.02500000
Al      19.17500000      17.15000000       7.02500000
Al      19.17500000      19.17500000       5.00000000
Al      17.74475024      16.26310661       9.67204372
Al      16.26291786      19.38547563      12.62010788
Al      18.46772823      17.64738565      12.26013850
Al      18.67175989      19.13866444       9.28828965
Al      17.15000000      17.15000000      15.56537919
Al      17.15000000      19.17500000      18.29477324
Al      19.17500000      17.15000000      18.29477324
Al      19.17500000      19.17500000      15.56537919
Al      17.15000000      21.20000000       5.00000000
Al      17.15000000      23.22500000       7.02500000
Al      19.17500000      21.20000000       7.02500000
Al      19.17500000      23.22500000       5.00000000
Al      16.52093733      20.93684371       9.85611618
Al      16.95565254      22.70891444      12.58218329
Al      18.71222675      20.59711459      13.08824119
Al      18.97135796      22.25929826       9.98472819
Al      17.15000000      21.20000000      15.56537919
Al      17.15000000      23.22500000      18.29477324
Al      19.17500000      21.20000000      18.29477324
Al      19.17500000      23.22500000      15.56537919
Al      21.20000000       5.00000000       5.00000000
Al      21.20000000       7.02500000       7.02500000
Al      23.22500000       5.00000000       7.02500000
Al      23.22500000       7.02500000       5.00000000
Al      20.76167754       5.42488175       9.83586053
Al      20.30688134       7.91811866      11.79828233
Al      22.15735856       6.06764144      12.81340303
Al      22.80011825       7.46332246       9.83586053
Al      21.20000000       5.00000000      15.56537919
Al      21.20000000       7.02500000      18.29477324
Al      23.22500000       5.00000000      18.29477324
Al      23.22500000       7.02500000      15.56537919
Al      21.20000000       9.05000000       5.00000000
Al      21.20000000      11.07500000       7.02500000
Al      23.22500000       9.05000000       7.02500000
Al      23.22500000      11.07500000       5.00000000
Al      20.83292906       9.40233949       9.32823897
Al      21.12459263      10.85443482      12.28982388
Al      22.94934171       8.87487948      12.99530809
Al      23.28275317      10.56096426      10.09002113
Al      21.20000000       9.05000000      15.56537919
Al      21.20000000      11.07500000      18.29477324
Al      23.22500000       9.05000000      18.29477324
Al      23.22500000      11.07500000      15.56537919
Al      21.20000000      13.10000000       5.00000000
Al      21.20000000      15.12500000       7.02500000
Al      23.22500000      13.10000000       7.02500000
Al      23.22500000      15.12500000       5.00000000
Al      21.40270725      12.58433453       9.39811539
Al      20.40794744      15.70341530      13.04120503
Al      22.27103014      13.56549229      12.45662096
Al      22.73522910      15.19334461       9.64781187
Al      21.20000000      13.10000000      15.56537919
Al      21.20000000      15.12500000      18.29477324
Al      23.22500000      13.10000000      18.29477324
Al      23.22500000      15.12500000      15.56537919
Al      21.20000000      17.15000000       5.00000000
Al      21.20000000      19.17500000       7.02500000
Al      23.22500000      17.15000000       7.02500000
Al      23.22500000      19.17500000       5.00000000
Al      20.59052732      17.04490043       9.83763424
Al      20.92824954      18.81477491      13.50308855
Al      22.77677787      17.08866032      12.24767288
Al      22.86041364      18.83485808       9.55475293
Al      21.20000000      17.15000000      15.56537919
Al      21.20000000      19.17500000      18.29477324
Al      23.22500000      17.15000000      18.29477324
Al      23.22500000      19.17500000      15.56537919
Al      21.20000000      21.20000000       5.00000000
Al      21.20000000      23.22500000       7.02500000
Al      23.22500000      21.20000000       7.02500000
Al      23.22500000      23.22500000       5.00000000
Al      20.53015990      19.76983180      11.06354450
Al      20.72509531      22.46782684      12.74966381
Al      22.92971577      20.54216072      12.62684978
Al      21.70565451      21.59267705       9.42525105
Al      21.20000000      21.20000000      15.56537919
Al      21.20000000      23.22500000      18.29477324
Al      23.22500000      21.20000000      18.29477324
Al      23.22500000      23.22500000      15.56537919
