299
Lattice="28.224999999999998 0.0 0.0 0.0 28.224999999999998 0.0 0.0 0.0 20.125" Properties=species:S:1:pos:R:3 energy=-16413.585292278076 pbc="T T T"
Al       5.00000000       5.00000000       5.00000000
Al       5.00000000       7.02500000       7.02500000
Al       7.02500000       5.00000000       7.02500000
Al       7.02500000       7.02500000       5.00000000
Al       5.60580036       5.60485921       9.68802596
Al       5.30549629       7.30892723      12.27920636
Al       7.33949821       5.22002371      12.26104351
Al       7.57345500       7.45792723       9.68631203
Al       5.00000000       5.00000000      14.83442366
Al       5.00000000       7.02500000      17.35497327
Al       7.02500000       5.00000000      17.35497327
Al       7.02500000       7.02500000      14.83442366
Al       5.00000000       9.05000000       5.00000000
Al       5.00000000      11.07500000       7.02500000
Al       7.02500000       9.05000000       7.02500000
Al       7.02500000      11.07500000       5.00000000
Al       5.15976117       8.99046827       9.57864484
Al       5.08955478      11.09077361      12.19663386
Al       7.26617279       9.28793066      12.21632764
Al       6.99184316      11.21150994       9.59834713
Al       5.00000000       9.05000000      14.83442366
Al       5.00000000      11.07500000      17.35497327
Al       7.02500000       9.05000000      17.35497327
Al       7.02500000      11.07500000      14.83442366
Al       5.00000000      13.10000000       5.00000000
Al       5.00000000      15.12500000       7.02500000
Al       7.02500000      13.10000000       7.02500000
Al       7.02500000      15.12500000       5.00000000
Al       5.02795182      13.26612356       9.62165522
Al       5.13203752      15.25569144      12.24784400
Al       7.08268008      13.18433369      12.23694615
Al       7.34604683      14.93989089       9.62948090
Al       5.00000000      13.10000000      14.83442366
Al       5.00000000      15.12500000      17.35497327
Al       7.02500000      13.10000000      17.35497327
Al       7.02500000      15.12500000      14.83442366
Al       5.00000000      17.15000000       5.00000000
Al       5.00000000      19.17500000       7.02500000
Al       7.02500000      17.15000000       7.02500000
Al       7.02500000      19.17500000       5.00000000
Al       5.28597643      16.98191646       9.59160086
Al       5.43252754      18.90697265      12.17306170
Al       7.46963882      16.91875793      12.18018193
Al       7.13168212      19.14263236       9.53654134
Al       5.00000000      17.15000000      14.83442366
Al       5.00000000      19.17500000      17.35497327
Al       7.02500000      17.15000000      17.35497327
Al       7.02500000      19.17500000      14.83442366
Al       5.00000000      21.20000000       5.00000000
Al       5.00000000      23.22500000       7.02500000
Al       7.02500000      21.20000000       7.02500000
Al       7.02500000      23.22500000       5.00000000
Al       5.12448198      21.02181396       9.48651575
Al       6.68010621      21.54489379      12.19339182
Al       8.67190811      19.55309189      12.21331267
Al       7.20318604      23.10051802       9.48651575
Al       5.00000000      21.20000000      14.83442366
Al       5.00000000      23.22500000      17.35497327
Al       7.02500000      21.20000000      17.35497327
Al       7.02500000      23.22500000      14.83442366
Al       9.05000000       5.00000000       5.00000000
Al       9.05000000       7.02500000       7.02500000
Al      11.07500000       5.00000000       7.02500000
Al      11.07500000       7.02500000       5.00000000
Al       9.05809328       5.03809262       9.55677236
Al       9.20520219       7.28339751      12.31026190
Al      11.03131764       5.13483956      12.19219813
Al      10.87834661       7.27656137       9.63451460
Al       9.05000000       5.00000000      14.83442366
Al       9.05000000       7.02500000      17.35497327
Al      11.07500000       5.00000000      17.35497327
Al      11.07500000       7.02500000      14.83442366
Al       9.05000000       9.05000000       5.00000000
Al       9.05000000      11.07500000       7.02500000
Al      11.07500000       9.05000000       7.02500000
Al      11.07500000      11.07500000       5.00000000
Al       9.22285748       9.56882813       9.66810693
Al       9.15126713      11.31597072      12.30972267
Al      11.11903718       9.30889423      12.23243736
Al      11.51530886      11.00611481       9.63253573
Al       9.05000000       9.05000000      14.83442366
Al       9.05000000      11.07500000      17.35497327
Al      11.07500000       9.05000000      17.35497327
Al      11.07500000      11.07500000      14.83442366
Al       9.05000000      13.10000000       5.00000000
Al       9.05000000      15.12500000       7.02500000
Al      11.07500000      13.10000000       7.02500000
Al      11.07500000      15.12500000       5.00000000
Al       9.32365190      12.87132901       9.62213354
Al       9.41183545      14.87531800      12.20580798
Al      11.46554983      12.92555162      12.20127007
Al      10.98831252      15.20687817       9.54060820
Al       9.05000000      13.10000000      14.83442366
Al       9.05000000      15.12500000      17.35497327
Al      11.07500000      13.10000000      17.35497327
Al      11.07500000      15.12500000      14.83442366
Al       9.05000000      17.15000000       5.00000000
Al       9.05000000      19.17500000       7.02500000
Al      11.07500000      17.15000000       7.02500000
Al      11.07500000      19.17500000       5.00000000
Al       9.04483537      17.18980039       9.51491215
Al      10.67718231      17.54781769      12.16677013
Al      12.66725833      15.55774167      12.17229262
Al      11.03519961      19.18016463       9.51491215
Al       9.05000000      17.15000000      14.83442366
Al       9.05000000      19.17500000      17.35497327
Al      11.07500000      17.15000000      17.35497327
Al      11.07500000      19.17500000      14.83442366
Al       9.05000000      21.20000000       5.00000000
Al       9.05000000      23.22500000       7.02500000
Al      11.07500000      21.20000000       7.02500000
Al      11.07500000      23.22500000       5.00000000
Al       9.08236764      21.09331788       9.53654134
Al       9.31802735      22.79247246      12.17306170
Al      11.30624207      20.75536118      12.18018193
Al      11.24308354      22.93902357       9.59160086
Al       9.05000000      21.20000000      14.83442366
Al       9.05000000      23.22500000      17.35497327
Al      11.07500000      21.20000000      17.35497327
Al      11.07500000      23.22500000      14.83442366
Al      13.10000000       5.00000000       5.00000000
Al      13.10000000       7.02500000       7.02500000
Al      15.12500000       5.00000000       7.02500000
Al      15.12500000       7.02500000       5.00000000
Al      13.01843957       5.34958709       9.63677311
Al      13.01754159       7.23390389      12.27873620
Al      15.13632397       5.28905416      12.19848979
Al      15.39011602       6.99020798       9.57902216
Al      13.10000000       5.00000000      14.83442366
Al      13.10000000       7.02500000      17.35497327
Al      15.12500000       5.00000000      17.35497327
Al      15.12500000       7.02500000      14.83442366
Al      13.10000000       9.05000000       5.00000000
Al      13.10000000      11.07500000       7.02500000
Al      15.12500000       9.05000000       7.02500000
Al      15.12500000      11.07500000       5.00000000
Al      13.29168871       8.83981251       9.61956375
Al      13.44652171      10.92302101      12.24305119
Al      15.37091211       8.89812349      12.21076177
Al      14.95000138      11.22004565       9.53927097
Al      13.10000000       9.05000000      14.83442366
Al      13.10000000      11.07500000      17.35497327
Al      15.12500000       9.05000000      17.35497327
Al      15.12500000      11.07500000      14.83442366
Al      13.10000000      13.10000000       5.00000000
Al      13.10000000      15.12500000       7.02500000
Al      15.12500000      13.10000000       7.02500000
Al      15.12500000      15.12500000       5.00000000
Al      13.01236262      13.28342219       9.52046421
Al      14.66148426      13.56351574      12.15358553
Al      14.94157781      15.21263738       9.52046421
Al      13.10000000      13.10000000      14.83442366
Al      13.10000000      15.12500000      17.35497327
Al      15.12500000      13.10000000      17.35497327
Al      15.12500000      15.12500000      14.83442366
Al      13.10000000      17.15000000       5.00000000
Al      13.10000000      19.17500000       7.02500000
Al      15.12500000      17.15000000       7.02500000
Al      15.12500000      19.17500000       5.00000000
Al      13.01812183      17.23668748       9.54060820
Al      13.34968200      18.81316455      12.20580798
Al      15.29944838      16.75945017      12.20127007
Al      15.35367099      18.90134810       9.62213354
Al      13.10000000      17.15000000      14.83442366
Al      13.10000000      19.17500000      17.35497327
Al      15.12500000      17.15000000      17.35497327
Al      15.12500000      19.17500000      14.83442366
Al      13.10000000      21.20000000       5.00000000
Al      13.10000000      23.22500000       7.02500000
Al      15.12500000      21.20000000       7.02500000
Al      15.12500000      23.22500000       5.00000000
Al      13.28510911      20.87895317       9.62948090
Al      12.96930856      23.09296248      12.24784400
Al      15.04066631      21.14231992      12.23694615
Al      14.95887644      23.19704818       9.62165522
Al      13.10000000      21.20000000      14.83442366
Al      13.10000000      23.22500000      17.35497327
Al      15.12500000      21.20000000      17.35497327
Al      15.12500000      23.22500000      14.83442366
Al      17.15000000       5.00000000       5.00000000
Al      17.15000000       7.02500000       7.02500000
Al      19.17500000       5.00000000       7.02500000
Al      19.17500000       7.02500000       5.00000000
Al      17.36708544       4.95313949       9.65290420
Al      17.42409472       7.03392609      12.23403530
Al      19.37525153       5.02925207      12.27339022
Al      18.94020433       7.30035577       9.52996797
Al      17.15000000       5.00000000      14.83442366
Al      17.15000000       7.02500000      17.35497327
Al      19.17500000       5.00000000      17.35497327
Al      19.17500000       7.02500000      14.83442366
Al      17.15000000       9.05000000       5.00000000
Al      17.15000000      11.07500000       7.02500000
Al      19.17500000       9.05000000       7.02500000
Al      19.17500000      11.07500000       5.00000000
Al      16.96994078       9.27576486       9.54179874
Al      16.63702026      11.58797974      12.14430694
Al      18.58121327       9.64378673      12.14472928
Al      18.94923514      11.25505922       9.54179874
Al      17.15000000       9.05000000      14.83442366
Al      17.15000000      11.07500000      17.35497327
Al      19.17500000       9.05000000      17.35497327
Al      19.17500000      11.07500000      14.83442366
Al      17.15000000      13.10000000       5.00000000
Al      17.15000000      15.12500000       7.02500000
Al      19.17500000      13.10000000       7.02500000
Al      19.17500000      15.12500000       5.00000000
Al      17.00495435      13.27499862       9.53927097
Al      17.30197899      14.77847829      12.24305119
Al      19.32687651      12.85408789      12.21076177
Al      19.38518749      14.93331129       9.61956375
Al      17.15000000      13.10000000      14.83442366
Al      17.15000000      15.12500000      17.35497327
Al      19.17500000      13.10000000      17.35497327
Al      19.17500000      15.12500000      14.83442366
Al      17.15000000      17.15000000       5.00000000
Al      17.15000000      19.17500000       7.02500000
Al      19.17500000      17.15000000       7.02500000
Al      19.17500000      19.17500000       5.00000000
Al      17.21888519      16.70969114       9.63253573
Al      16.90902928      19.07373287      12.30972267
Al      18.91610577      17.10596282      12.23243736
Al      18.65617187      19.00214252       9.66810693
Al      17.15000000      17.15000000      14.83442366
Al      17.15000000      19.17500000      17.35497327
Al      19.17500000      17.15000000      17.35497327
Al      19.17500000      19.17500000      14.83442366
Al      17.15000000      21.20000000       5.00000000
Al      17.15000000      23.22500000       7.02500000
Al      19.17500000      21.20000000       7.02500000
Al      19.17500000      23.22500000       5.00000000
Al      17.01349006      21.23315684       9.59834713
Al      17.13422639      23.13544522      12.19663386
Al      18.93706934      20.95882721      12.21632764
Al      19.23453173      23.06523883       9.57864484
Al      17.15000000      21.20000000      14.83442366
Al      17.15000000      23.22500000      17.35497327
Al      19.17500000      21.20000000      17.35497327
Al      19.17500000      23.22500000      14.83442366
Al      21.20000000       5.00000000       5.00000000
Al      21.20000000       7.02500000       7.02500000
Al      23.22500000       5.00000000       7.02500000
Al      23.22500000       7.02500000       5.00000000
Al      20.88155748       5.28413921       9.52871977
Al      20.52965593       7.69534407      12.12625438
Al      22.46163158       5.76336842      12.14503830
Al      22.94086079       7.34344252       9.52871977
Al      21.20000000       5.00000000      14.83442366
Al      21.20000000       7.02500000      17.35497327
Al      23.22500000       5.00000000      17.35497327
Al      23.22500000       7.02500000      14.83442366
Al      21.20000000       9.05000000       5.00000000
Al      21.20000000      11.07500000       7.02500000
Al      23.22500000       9.05000000       7.02500000
Al      23.22500000      11.07500000       5.00000000
Al      20.92464423       9.28479567       9.52996797
Al      21.19107391      10.80090528      12.23403530
Al      23.19574793       8.84974847      12.27339022
Al      23.27186051      10.85791456       9.65290420
Al      21.20000000       9.05000000      14.83442366
Al      21.20000000      11.07500000      17.35497327
Al      23.22500000       9.05000000      17.35497327
Al      23.22500000      11.07500000      14.83442366
Al      21.20000000      13.10000000       5.00000000
Al      21.20000000      15.12500000       7.02500000
Al      23.22500000      13.10000000       7.02500000
Al      23.22500000      15.12500000       5.00000000
Al      21.23479202      12.83488398       9.57902216
Al      20.99109611      15.20745841      12.27873620
Al      22.93594584      13.08867603      12.19848979
Al      22.87541291      15.20656043       9.63677311
Al      21.20000000      13.10000000      14.83442366
Al      21.20000000      15.12500000      17.35497327
Al      23.22500000      13.10000000      17.35497327
Al      23.22500000      15.12500000      14.83442366
Al      21.20000000      17.15000000       5.00000000
Al      21.20000000      19.17500000       7.02500000
Al      23.22500000      17.15000000       7.02500000
Al      23.22500000      19.17500000       5.00000000
Al      20.94843863      17.34665339       9.63451460
Al      20.94160249      19.01979781      12.31026190
Al      23.09016044      17.19368236      12.19219813
Al      23.18690738      19.16690672       9.55677236
Al      21.20000000      17.15000000      14.83442366
Al      21.20000000      19.17500000      17.35497327
Al      23.22500000      17.15000000      17.35497327
Al      23.22500000      19.17500000      14.83442366
Al      21.20000000      21.20000000       5.00000000
Al      21.20000000      23.22500000       7.02500000
Al      23.22500000      21.20000000       7.02500000
Al      23.22500000      23.22500000       5.00000000
Al      20.76707277      20.65154500       9.68631203
Al      20.91607277      22.91950371      12.27920636
Al      23.00497629      20.88550179      12.26104351
Al      22.62014079      22.61919964       9.68802596
Al      21.20000000      21.20000000      14.83442366
Al      21.20000000      23.22500000      17.35497327
Al      23.22500000      21.20000000      17.35497327
Al      23.22500000      23.22500000      14.83442366
