299
Lattice="28.224999999999998 0.0 0.0 0.0 28.224999999999998 0.0 0.0 0.0 20.125" Properties=species:S:1:pos:R:3:forces:R:3 energy=-16457.250172931672 pbc="T T T"
Al       5.00000000       5.00000000       5.00000000       0.36223416       0.36119064       0.18888032
Al       5.00000000       7.02500000       7.02500000      -0.17477104       0.45625908       0.99269000
Al       7.02500000       5.00000000       7.02500000       0.44205167      -0.17768482       0.99036049
Al       7.02500000       7.02500000       5.00000000       0.32566591       0.32415747      -0.64660085
Al       5.23105641       5.23653676       9.36449611      -0.02904033      -0.02495922       0.05583762
Al       5.10893631       7.17491502      11.63693820       0.01420875       0.02254497      -0.02068089
Al       7.14623287       5.04296278      11.64431204       0.00709790      -0.01379026      -0.01280811
Al       7.19864209       7.19359447       9.30950049      -0.01032930      -0.00865518       0.06720730
Al       5.00000000       5.00000000      13.91979941       0.62080632       0.65033659      -0.51418905
Al       5.00000000       7.02500000      16.17902781       0.17725756       0.47415286      -0.62527348
Al       7.02500000       5.00000000      16.17902781       0.47640144       0.17310705      -0.63289698
Al       7.02500000       7.02500000      13.91979941       0.42244278       0.41221636      -0.17304743
Al       5.00000000       9.05000000       5.00000000      -0.17496084      -0.04054549      -0.26855393
Al       5.00000000      11.07500000       7.02500000      -0.33623456      -0.01533622       1.07825860
Al       7.02500000       9.05000000       7.02500000       0.33514625       0.05440732       1.16344161
Al       7.02500000      11.07500000       5.00000000       0.31959427      -0.02599184      -0.70834797
Al       5.00007173       9.05255145       9.28296761      -0.02925863      -0.00206900       0.03516471
Al       4.96697859      11.05044189      11.60984035      -0.01343422      -0.00642081      -0.02360859
Al       7.15823524       9.16952756      11.61701488       0.02003115       0.02498322      -0.01800095
Al       7.06834476      11.08053376       9.29654240       0.00725228       0.00827024       0.06084310
Al       5.00000000       9.05000000      13.91979941      -0.02831241       0.09270388      -0.15470038
Al       5.00000000      11.07500000      16.17902781       0.06134029      -0.02040489      -0.52664607
Al       7.02500000       9.05000000      16.17902781       0.34126317      -0.04506150      -0.31906438
Al       7.02500000      11.07500000      13.91979941       0.33079976       0.03651737      -0.24822896
Al       5.00000000      13.10000000       5.00000000      -0.18877899      -0.00740830      -0.27854913
Al       5.00000000      15.12500000       7.02500000      -0.35773902       0.02545492       1.11353355
Al       7.02500000      13.10000000       7.02500000       0.28215629       0.00214333       1.28220335
Al       7.02500000      15.12500000       5.00000000       0.31890804       0.01107806      -0.71123862
Al       4.98369169      13.09311467       9.29708339      -0.02171267      -0.00000577       0.04314897
Al       4.99466171      15.13088724      11.60968665       0.00162138       0.00265541      -0.02735098
Al       7.03951822      13.07562542      11.61016909       0.00962781      -0.00105914      -0.02361330
Al       7.04647065      15.13647711       9.29674562       0.00709518      -0.00028227       0.06843655
Al       5.00000000      13.10000000      13.91979941      -0.11050874      -0.02180637      -0.32675823
Al       5.00000000      15.12500000      16.17902781       0.05983273       0.00578799      -0.52213276
Al       7.02500000      13.10000000      16.17902781       0.33905723      -0.00714316      -0.31049281
Al       7.02500000      15.12500000      13.91979941       0.26379163       0.01308265      -0.27836071
Al       5.00000000      17.15000000       5.00000000      -0.18434693       0.02505587      -0.27248257
Al       5.00000000      19.17500000       7.02500000      -0.29394765      -0.11062221       0.89655809
Al       7.02500000      17.15000000       7.02500000       0.28562714      -0.01602456       1.22450672
Al       7.02500000      19.17500000       5.00000000       0.32388134       0.04964740      -0.69340640
Al       4.97425388      17.17220582       9.29859162      -0.02907175       0.00193162       0.03781824
Al       4.97606860      19.19659306      11.62248174      -0.01944129       0.00997715      -0.01543113
Al       7.04132817      17.18204509      11.61301558       0.00985185      -0.00116001      -0.02268717
Al       7.11900262      19.10277665       9.28601146      -0.00169900      -0.00015167       0.05155500
Al       5.00000000      17.15000000      13.91979941      -0.10666629       0.03033798      -0.30501110
Al       5.00000000      19.17500000      16.17902781       0.06740959       0.03568635      -0.53053632
Al       7.02500000      17.15000000      16.17902781       0.34126364       0.01882679      -0.31309315
Al       7.02500000      19.17500000      13.91979941       0.36927017      -0.06852986      -0.17970790
Al       5.00000000      21.20000000       5.00000000      -0.06858108      -0.45881185      -0.16755726
Al       5.00000000      23.22500000       7.02500000       0.32557114      -0.32557114       1.04465480
Al       7.02500000      21.20000000       7.02500000       0.42127552      -0.42127552       1.11141147
Al       7.02500000      23.22500000       5.00000000       0.45881185       0.06858108      -0.16755726
Al       5.07496941      21.06413811       9.25808601      -0.02489011       0.00519292       0.04642807
Al       5.27930584      22.94569416      11.54106378       0.01234656      -0.01234656      -0.04601145
Al       7.25732627      20.96767373      11.59479818       0.03318481      -0.03318481      -0.03121384
Al       7.16086189      23.15003059       9.25808601      -0.00519292       0.02489011       0.04642807
Al       5.00000000      21.20000000      13.91979941       0.08951657      -0.47459153      -0.19043551
Al       5.00000000      23.22500000      16.17902781       0.64100042      -0.64100042      -0.70730163
Al       7.02500000      21.20000000      16.17902781       0.34010071      -0.34010071      -0.36278602
Al       7.02500000      23.22500000      13.91979941       0.47459153      -0.08951657      -0.19043551
Al       9.05000000       5.00000000       5.00000000      -0.04030051      -0.17600971      -0.26587436
Al       9.05000000       7.02500000       7.02500000       0.04003837       0.31787087       1.15759195
Al      11.07500000       5.00000000       7.02500000      -0.02684437      -0.34808980       1.08131381
Al      11.07500000       7.02500000       5.00000000      -0.02662626       0.31783472      -0.70730780
Al       9.03941275       4.97846906       9.28434978      -0.00394610      -0.03674382       0.03191399
Al       9.08968498       7.09163573      11.62237542      -0.00307205      -0.00316587      -0.00963642
Al      11.05679887       4.98305754      11.60946708      -0.00216385      -0.00869154      -0.02208618
Al      11.05300834       7.05120004       9.29550025       0.00262389      -0.00033404       0.06410872
Al       9.05000000       5.00000000      13.91979941       0.08628405      -0.06177936      -0.14122083
Al       9.05000000       7.02500000      16.17902781      -0.04325957       0.33862375      -0.32334243
Al      11.07500000       5.00000000      16.17902781      -0.02132672       0.06213613      -0.52825121
Al      11.07500000       7.02500000      13.91979941      -0.00428870       0.27151322      -0.23386379
Al       9.05000000       9.05000000       5.00000000      -0.05346221      -0.05411716      -0.76378908
Al       9.05000000      11.07500000       7.02500000       0.01605909       0.05635448       1.18986730
Al      11.07500000       9.05000000       7.02500000       0.02125186       0.00052056       1.18325245
Al      11.07500000      11.07500000       5.00000000      -0.03162979      -0.02890196      -0.77681088
Al       9.14454364       9.15061587       9.29417177       0.00277429       0.01104611       0.06830770
Al       9.19550470      11.20905133      11.62009138       0.02204622       0.02788101      -0.02846003
Al      11.08204394       9.06735260      11.62266227       0.00668624       0.00012262      -0.02037392
Al      11.12859773      11.12817907       9.30650504       0.01543844       0.01605244       0.07062531
Al       9.05000000       9.05000000      13.91979941       0.03956001       0.06064532      -0.15806376
Al       9.05000000      11.07500000      16.17902781      -0.04757102      -0.02307211      -0.25181862
Al      11.07500000       9.05000000      16.17902781      -0.02404087      -0.04977273      -0.25612270
Al      11.07500000      11.07500000      13.91979941       0.09164248       0.11482488      -0.25400574
Al       9.05000000      13.10000000       5.00000000      -0.05665776      -0.00636930      -0.77450296
Al       9.05000000      15.12500000       7.02500000      -0.07933558      -0.00572788       1.14264407
Al      11.07500000      13.10000000       7.02500000      -0.07378901      -0.04799807       1.08180955
Al      11.07500000      15.12500000       5.00000000      -0.02922137       0.01417472      -0.75684033
Al       9.07210909      13.11663066       9.30170749       0.00088719       0.01295990       0.06610283
Al       9.02756360      15.13166717      11.61708708       0.01736567       0.00212637      -0.02760436
Al      11.31546650      13.34100374      11.59550071      -0.00158981       0.00619100      -0.03406459
Al      11.09372455      15.11519487       9.23255136       0.01203668      -0.00835757       0.04574324
Al       9.05000000      13.10000000      13.91979941       0.08855722       0.10100274      -0.27092596
Al       9.05000000      15.12500000      16.17902781      -0.04402789       0.00821314      -0.25276318
Al      11.07500000      13.10000000      16.17902781      -0.02277165      -0.00414897      -0.24244450
Al      11.07500000      15.12500000      13.91979941       0.01933266      -0.00303518       0.10000560
Al       9.05000000      17.15000000       5.00000000      -0.05380420       0.02876657      -0.76412045
Al       9.05000000      19.17500000       7.02500000       0.05044335      -0.05044335       1.12533024
Al      11.07500000      17.15000000       7.02500000      -0.04954935       0.04954935       1.05681251
Al      11.07500000      19.17500000       5.00000000      -0.02876657       0.05380420      -0.76412045
Al       9.10296695      17.10800219       9.29507389       0.01020848      -0.02040814       0.06071028
Al       9.25708667      18.96791333      11.61421100       0.04313451      -0.04313451      -0.03375758
Al      11.35660878      16.86839122      11.58914654       0.02578051      -0.02578051      -0.04360637
Al      11.11699781      19.12203305       9.29507389       0.02040814      -0.01020848       0.06071028
Al       9.05000000      17.15000000      13.91979941       0.10037080      -0.11888138      -0.21193686
Al       9.05000000      19.17500000      16.17902781      -0.04238778       0.04238778      -0.25541029
Al      11.07500000      17.15000000      16.17902781      -0.02045394       0.02045394      -0.24651001
Al      11.07500000      19.17500000      13.91979941       0.11888138      -0.10037080      -0.21193686
Al       9.05000000      21.20000000       5.00000000      -0.04964740      -0.32388134      -0.69340640
Al       9.05000000      23.22500000       7.02500000       0.11062221       0.29394765       0.89655809
Al      11.07500000      21.20000000       7.02500000       0.01602456      -0.28562714       1.22450672
Al      11.07500000      23.22500000       5.00000000      -0.02505587       0.18434693      -0.27248257
Al       9.12222335      21.10599738       9.28601146       0.00015167       0.00169900       0.05155500
Al       9.02840694      23.24893140      11.62248174      -0.00997715       0.01944129      -0.01543113
Al      11.04295491      21.18367183      11.61301558       0.00116001      -0.00985185      -0.02268717
Al      11.05279418      23.25074612       9.29859162      -0.00193162       0.02907175       0.03781824
Al       9.05000000      21.20000000      13.91979941       0.06852986      -0.36927017      -0.17970790
Al       9.05000000      23.22500000      16.17902781      -0.03568635      -0.06740959      -0.53053632
Al      11.07500000      21.20000000      16.17902781      -0.01882679      -0.34126364      -0.31309315
Al      11.07500000      23.22500000      13.91979941      -0.03033798       0.10666629      -0.30501110
Al      13.10000000       5.00000000       5.00000000      -0.00801643      -0.18870538      -0.27873966
Al      13.10000000       7.02500000       7.02500000      -0.01570645       0.25210830       1.26676477
Al      15.12500000       5.00000000       7.02500000       0.02296884      -0.35660988       1.11505095
Al      15.12500000       7.02500000       5.00000000       0.01011754       0.31435270      -0.71262972
Al      13.09381502       4.99218207       9.29770604      -0.00145047      -0.01796173       0.04582833
Al      13.08939049       7.05454565      11.60917303      -0.00140971       0.00652791      -0.02166608
Al      15.12953263       4.99379792      11.61012546       0.00076809      -0.00174284      -0.02747246
Al      15.14097095       7.04851740       9.29778693       0.00255542      -0.00258971       0.06380202
Al      13.10000000       5.00000000      13.91979941      -0.02179401      -0.09840265      -0.33287040
Al      13.10000000       7.02500000      16.17902781      -0.00903266       0.33606461      -0.31157947
Al      15.12500000       5.00000000      16.17902781       0.00532284       0.05942538      -0.52323616
Al      15.12500000       7.02500000      13.91979941       0.01527817       0.26485621      -0.27219602
Al      13.10000000       9.05000000       5.00000000      -0.01174366      -0.06155094      -0.77892368
Al      13.10000000      11.07500000       7.02500000      -0.00644869      -0.06330206       1.16517274
Al      15.12500000       9.05000000       7.02500000      -0.01573552      -0.02085579       1.21694493
Al      15.12500000      11.07500000       5.00000000       0.00872373      -0.03151847      -0.78433752
Al      13.09529672       9.04457809       9.29057606       0.00236608      -0.00890512       0.07199425
Al      13.11347748      11.05269958      11.61791189       0.00777599       0.01746947      -0.02636755
Al      15.14532308       9.03519858      11.61865900       0.00087624      -0.00906421      -0.02299591
Al      15.09376113      11.10177414       9.30336156      -0.01779055       0.01017835       0.06512584
Al      13.10000000       9.05000000      13.91979941       0.00535515      -0.05689134      -0.20407798
Al      13.10000000      11.07500000      16.17902781      -0.01063387      -0.02129636      -0.24792873
Al      15.12500000       9.05000000      16.17902781       0.00628965      -0.05122405      -0.24990337
Al      15.12500000      11.07500000      13.91979941      -0.09653879       0.09536616      -0.25884738
Al      13.10000000      13.10000000       5.00000000      -0.01441705      -0.00383676      -0.76405365
Al      13.10000000      15.12500000       7.02500000      -0.01684946       0.01684946       0.88249855
Al      15.12500000      13.10000000       7.02500000       0.05277554      -0.05277554       1.09486850
Al      15.12500000      15.12500000       5.00000000       0.00383676       0.01441705      -0.76405365
Al      13.10650043      13.12443396       9.23942991      -0.00035403       0.02116194       0.04346182
Al      14.87237226      13.35262774      11.59613807      -0.01475626       0.01475626      -0.02802927
Al      15.10056604      15.11849957       9.23942991      -0.02116194       0.00035403       0.04346182
Al      13.10000000      13.10000000      13.91979941      -0.02452846       0.05422046       0.07798396
Al      13.10000000      15.12500000      16.17902781      -0.01052984       0.01052984      -0.19681959
Al      15.12500000      13.10000000      16.17902781       0.00390688      -0.00390688      -0.23897812
Al      15.12500000      15.12500000      13.91979941      -0.05422046       0.02452846       0.07798396
Al      13.10000000      17.15000000       5.00000000      -0.01417472       0.02922137      -0.75684033
Al      13.10000000      19.17500000       7.02500000       0.00572788       0.07933558       1.14264407
Al      15.12500000      17.15000000       7.02500000       0.04799807       0.07378901       1.08180955
Al      15.12500000      19.17500000       5.00000000       0.00636930       0.05665776      -0.77450296
Al      13.10980513      17.13127545       9.23255136       0.00835757      -0.01203668       0.04574324
Al      13.09333283      19.19743640      11.61708708      -0.00212637      -0.01736567      -0.02760436
Al      14.88399626      16.90953350      11.59550071      -0.00619100       0.00158981      -0.03406459
Al      15.10836934      19.15289091       9.30170749      -0.01295990      -0.00088719       0.06610283
Al      13.10000000      17.15000000      13.91979941       0.00303518      -0.01933266       0.10000560
Al      13.10000000      19.17500000      16.17902781      -0.00821314       0.04402789      -0.25276318
Al      15.12500000      17.15000000      16.17902781       0.00414897       0.02277165      -0.24244450
Al      15.12500000      19.17500000      13.91979941      -0.10100274      -0.08855722      -0.27092596
Al      13.10000000      21.20000000       5.00000000      -0.01107806      -0.31890804      -0.71123862
Al      13.10000000      23.22500000       7.02500000      -0.02545492       0.35773902       1.11353355
Al      15.12500000      21.20000000       7.02500000      -0.00214333      -0.28215629       1.28220335
Al      15.12500000      23.22500000       5.00000000       0.00740830       0.18877899      -0.27854913
Al      13.08852289      21.17852935       9.29674562       0.00028227      -0.00709518       0.06843655
Al      13.09411276      23.23033829      11.60968665      -0.00265541      -0.00162138      -0.02735098
Al      15.14937458      21.18548178      11.61016909       0.00105914      -0.00962781      -0.02361330
Al      15.13188533      23.24130831       9.29708339       0.00000577       0.02171267       0.04314897
Al      13.10000000      21.20000000      13.91979941      -0.01308265      -0.26379163      -0.27836071
Al      13.10000000      23.22500000      16.17902781      -0.00578799      -0.05983273      -0.52213276
Al      15.12500000      21.20000000      16.17902781       0.00714316      -0.33905723      -0.31049281
Al      15.12500000      23.22500000      13.91979941       0.02180637       0.11050874      -0.32675823
Al      17.15000000       5.00000000       5.00000000       0.02532589      -0.18521896      -0.27239616
Al      17.15000000       7.02500000       7.02500000      -0.00607961       0.27188425       1.22092028
Al      19.17500000       5.00000000       7.02500000      -0.09943827      -0.29810501       0.90572502
Al      19.17500000       7.02500000       5.00000000       0.05154270       0.32091049      -0.69454607
Al      17.17102494       4.97341624       9.29827472       0.00264698      -0.02798658       0.03844203
Al      17.17707838       7.04267342      11.61276920       0.00367642       0.00085428      -0.02196319
Al      19.19225202       4.97837490      11.62237966       0.00836088      -0.01855859      -0.01577846
Al      19.10945058       7.11192265       9.28628811       0.00013473      -0.00571871       0.05541953
Al      17.15000000       5.00000000      13.91979941       0.02673120      -0.10431870      -0.30348758
Al      17.15000000       7.02500000      16.17902781       0.01973961       0.33729139      -0.31321840
Al      19.17500000       5.00000000      16.17902781       0.03666457       0.06768816      -0.53156358
Al      19.17500000       7.02500000      13.91979941      -0.04715586       0.34432220      -0.18469968
Al      17.15000000       9.05000000       5.00000000       0.03231951      -0.06113568      -0.77225121
Al      17.15000000      11.07500000       7.02500000      -0.02945844       0.02945844       1.21604297
Al      19.17500000       9.05000000       7.02500000      -0.02859896       0.02859896       1.12156046
Al      19.17500000      11.07500000       5.00000000       0.06113568      -0.03231951      -0.77225121
Al      17.11285194       9.10012270       9.29114348      -0.00851863       0.00391883       0.06518432
Al      16.99926007      11.22573993      11.61624096      -0.03128162       0.03128162      -0.03239412
Al      19.03113597       9.19386403      11.61598071      -0.03278837       0.03278837      -0.02764501
Al      19.12487730      11.11214806       9.29114348      -0.00391883       0.00851863       0.06518432
Al      17.15000000       9.05000000      13.91979941      -0.04875795       0.02933065      -0.18754027
Al      17.15000000      11.07500000      16.17902781       0.02414989      -0.02414989      -0.24493953
Al      19.17500000       9.05000000      16.17902781       0.04620436      -0.04620436      -0.25631658
Al      19.17500000      11.07500000      13.91979941      -0.02933065       0.04875795      -0.18754027
Al      17.15000000      13.10000000       5.00000000       0.03151847      -0.00872373      -0.78433752
Al      17.15000000      15.12500000       7.02500000       0.06330206       0.00644869       1.16517274
Al      19.17500000      13.10000000       7.02500000       0.02085579       0.01573552       1.21694493
Al      19.17500000      15.12500000       5.00000000       0.06155094       0.01174366      -0.77892368
Al      17.12322586      13.13123887       9.30336156      -0.01017835       0.01779055       0.06512584
Al      17.17230042      15.11152252      11.61791189      -0.01746947      -0.00777599      -0.02636755
Al      19.18980142      13.07967692      11.61865900       0.00906421      -0.00087624      -0.02299591
Al      19.18042191      15.12970328       9.29057606       0.00890512      -0.00236608       0.07199425
Al      17.15000000      13.10000000      13.91979941      -0.09536616       0.09653879      -0.25884738
Al      17.15000000      15.12500000      16.17902781       0.02129636       0.01063387      -0.24792873
Al      19.17500000      13.10000000      16.17902781       0.05122405      -0.00628965      -0.24990337
Al      19.17500000      15.12500000      13.91979941       0.05689134      -0.00535515      -0.20407798
Al      17.15000000      17.15000000       5.00000000       0.02890196       0.03162979      -0.77681088
Al      17.15000000      19.17500000       7.02500000      -0.05635448      -0.01605909       1.18986730
Al      19.17500000      17.15000000       7.02500000      -0.00052056      -0.02125186       1.18325245
Al      19.17500000      19.17500000       5.00000000       0.05411716       0.05346221      -0.76378908
Al      17.09682093      17.09640227       9.30650504      -0.01605244      -0.01543844       0.07062531
Al      17.01594867      19.02949530      11.62009138      -0.02788101      -0.02204622      -0.02846003
Al      19.15764740      17.14295606      11.62266227      -0.00012262      -0.00668624      -0.02037392
Al      19.07438413      19.08045636       9.29417177      -0.01104611      -0.00277429       0.06830770
Al      17.15000000      17.15000000      13.91979941      -0.11482488      -0.09164248      -0.25400574
Al      17.15000000      19.17500000      16.17902781       0.02307211       0.04757102      -0.25181862
Al      19.17500000      17.15000000      16.17902781       0.04977273       0.02404087      -0.25612270
Al      19.17500000      19.17500000      13.91979941      -0.06064532      -0.03956001      -0.15806376
Al      17.15000000      21.20000000       5.00000000       0.02599184      -0.31959427      -0.70834797
Al      17.15000000      23.22500000       7.02500000       0.01533622       0.33623456       1.07825860
Al      19.17500000      21.20000000       7.02500000      -0.05440732      -0.33514625       1.16344161
Al      19.17500000      23.22500000       5.00000000       0.04054549       0.17496084      -0.26855393
Al      17.14446624      21.15665524       9.29654240      -0.00827024      -0.00725228       0.06084310
Al      17.17455811      23.25802141      11.60984035       0.00642081       0.01343422      -0.02360859
Al      19.05547244      21.06676476      11.61701488      -0.02498322      -0.02003115      -0.01800095
Al      19.17244855      23.22492827       9.28296761       0.00206900       0.02925863       0.03516471
Al      17.15000000      21.20000000      13.91979941      -0.03651737      -0.33079976      -0.24822896
Al      17.15000000      23.22500000      16.17902781       0.02040489      -0.06134029      -0.52664607
Al      19.17500000      21.20000000      16.17902781       0.04506150      -0.34126317      -0.31906438
Al      19.17500000      23.22500000      13.91979941      -0.09270388       0.02831241      -0.15470038
Al      21.20000000       5.00000000       5.00000000      -0.45789245      -0.06854857      -0.16692095
Al      21.20000000       7.02500000       7.02500000      -0.40621089       0.40621089       1.12335254
Al      23.22500000       5.00000000       7.02500000      -0.32206839       0.32206839       1.03913978
Al      23.22500000       7.02500000       5.00000000       0.06854857       0.45789245      -0.16692095
Al      21.07088869       5.06803835       9.26075683       0.00461947      -0.02333130       0.04423778
Al      21.00315365       7.22184635      11.59733702      -0.02312646       0.02312646      -0.03003410
Al      22.97018302       5.25481698      11.54372400      -0.00346476       0.00346476      -0.04219298
Al      23.15696165       7.15411131       9.26075683       0.02333130      -0.00461947       0.04423778
Al      21.20000000       5.00000000      13.91979941      -0.46148215       0.07843704      -0.20270851
Al      21.20000000       7.02500000      16.17902781      -0.33871870       0.33871870      -0.36541728
Al      23.22500000       5.00000000      16.17902781      -0.64106823       0.64106823      -0.71210115
Al      23.22500000       7.02500000      13.91979941      -0.07843704       0.46148215      -0.20270851
Al      21.20000000       9.05000000       5.00000000      -0.32091049      -0.05154270      -0.69454607
Al      21.20000000      11.07500000       7.02500000      -0.27188425       0.00607961       1.22092028
Al      23.22500000       9.05000000       7.02500000       0.29810501       0.09943827       0.90572502
Al      23.22500000      11.07500000       5.00000000       0.18521896      -0.02532589      -0.27239616
Al      21.11307735       9.11554942       9.28628811       0.00571871      -0.00013473       0.05541953
Al      21.18232658      11.04792162      11.61276920      -0.00085428      -0.00367642      -0.02196319
Al      23.24662510       9.03274798      11.62237966       0.01855859      -0.00836088      -0.01577846
Al      23.25158376      11.05397506       9.29827472       0.02798658      -0.00264698       0.03844203
Al      21.20000000       9.05000000      13.91979941      -0.34432220       0.04715586      -0.18469968
Al      21.20000000      11.07500000      16.17902781      -0.33729139      -0.01973961      -0.31321840
Al      23.22500000       9.05000000      16.17902781      -0.06768816      -0.03666457      -0.53156358
Al      23.22500000      11.07500000      13.91979941       0.10431870      -0.02673120      -0.30348758
Al      21.20000000      13.10000000       5.00000000      -0.31435270      -0.01011754      -0.71262972
Al      21.20000000      15.12500000       7.02500000      -0.25210830       0.01570645       1.26676477
Al      23.22500000      13.10000000       7.02500000       0.35660988      -0.02296884       1.11505095
Al      23.22500000      15.12500000       5.00000000       0.18870538       0.00801643      -0.27873966
Al      21.17648260      13.08402905       9.29778693       0.00258971      -0.00255542       0.06380202
Al      21.17045435      15.13560951      11.60917303      -0.00652791       0.00140971      -0.02166608
Al      23.23120208      13.09546737      11.61012546       0.00174284      -0.00076809      -0.02747246
Al      23.23281793      15.13118498       9.29770604       0.01796173       0.00145047       0.04582833
Al      21.20000000      13.10000000      13.91979941      -0.26485621      -0.01527817      -0.27219602
Al      21.20000000      15.12500000      16.17902781      -0.33606461       0.00903266      -0.31157947
Al      23.22500000      13.10000000      16.17902781      -0.05942538      -0.00532284      -0.52323616
Al      23.22500000      15.12500000      13.91979941       0.09840265       0.02179401      -0.33287040
Al      21.20000000      17.15000000       5.00000000      -0.31783472       0.02662626      -0.70730780
Al      21.20000000      19.17500000       7.02500000      -0.31787087      -0.04003837       1.15759195
Al      23.22500000      17.15000000       7.02500000       0.34808980       0.02684437       1.08131381
Al      23.22500000      19.17500000       5.00000000       0.17600971       0.04030051      -0.26587436
Al      21.17379996      17.17199166       9.29550025       0.00033404      -0.00262389       0.06410872
Al      21.13336427      19.13531502      11.62237542       0.00316587       0.00307205      -0.00963642
Al      23.24194246      17.16820113      11.60946708       0.00869154       0.00216385      -0.02208618
Al      23.24653094      19.18558725       9.28434978       0.03674382       0.00394610       0.03191399
Al      21.20000000      17.15000000      13.91979941      -0.27151322       0.00428870      -0.23386379