299
Lattice="28.224999999999998 0.0 0.0 0.0 28.224999999999998 0.0 0.0 0.0 20.125" Properties=species:S:1:pos:R:3:forces:R:3 energy=-16385.31985193063 pbc="T T T"
Al       5.00000000       5.00000000       5.00000000       0.40312547       0.40093580      -0.08556927
Al       5.00000000       7.02500000       7.02500000      -0.04461123       0.64520651       1.25558492
Al       7.02500000       5.00000000       7.02500000       0.72932641      -0.07653193       1.30619335
Al       7.02500000       7.02500000       5.00000000       0.31530220       0.31680624      -0.86758290
Al       5.95426874       5.92396430       9.70184103       0.04494447       0.03391388       0.02847067
Al       5.59245811       7.53061517      12.55970382       0.01197333       0.01128621      -0.02158351
Al       7.61475879       5.41459350      12.45549067       0.02523215       0.02157333      -0.01248577
Al       8.04812928       7.55570100      10.13143031       0.02520204       0.01186095       0.03121085
Al       5.00000000       5.00000000      15.28443042       1.13073981       1.11156087       0.02131539
Al       5.00000000       7.02500000      17.93355340       0.34307187       0.48598983      -1.20650081
Al       7.02500000       5.00000000      17.93355340       0.48598702       0.34227014      -1.20369037
Al       7.02500000       7.02500000      15.28443042       0.61667119       0.45418841       0.15125950
Al       5.00000000       9.05000000       5.00000000      -0.15105087      -0.03950935      -0.51480210
Al       5.00000000      11.07500000       7.02500000      -0.05437352       0.10094418       1.84212169
Al       7.02500000       9.05000000       7.02500000       0.63457973      -0.06291064       2.01487606
Al       7.02500000      11.07500000       5.00000000       0.32750268      -0.01737784      -0.91483311
Al       5.67004720       9.13322464       9.72426797       0.01702657       0.00832779       0.01033896
Al       5.47824219      11.11399579      12.51664315       0.02431646       0.00865803      -0.00580183
Al       7.69909021       9.34485010      12.51760223       0.02747207       0.03348299       0.00348484
Al       7.07676809      11.67361922       9.79676151       0.04474131       0.01235352       0.00010972
Al       5.00000000       9.05000000      15.28443042       0.36119103       0.12251099       0.11144665
Al       5.00000000      11.07500000      17.93355340       0.23276915      -0.01736273      -1.11665016
Al       7.02500000       9.05000000      17.93355340       0.34843050      -0.04378200      -1.14176463
Al       7.02500000      11.07500000      15.28443042       0.48013015       0.04914655       0.03317956
Al       5.00000000      13.10000000       5.00000000      -0.16901936       0.00250624      -0.51343278
Al       5.00000000      15.12500000       7.02500000      -0.05495251       0.00070269       1.58005720
Al       7.02500000      13.10000000       7.02500000       0.35664353       0.11546625       2.04313529
Al       7.02500000      15.12500000       5.00000000       0.32651900       0.00639262      -0.91140275
Al       5.08143452      13.65682614       9.88402989      -0.00126454       0.03971043       0.00334071
Al       5.00086005      15.62333530      12.65445980       0.03558785       0.01740965      -0.01005474
Al       6.93925225      13.63672047      12.61858469      -0.00792344       0.03358669      -0.00019201
Al       7.77677745      14.69403584       9.81034789      -0.00138357       0.01063461      -0.00053440
Al       5.00000000      13.10000000      15.28443042       0.25859718       0.10236111      -0.12441122
Al       5.00000000      15.12500000      17.93355340       0.22170897       0.00833097      -1.13995823
Al       7.02500000      13.10000000      17.93355340       0.34912284      -0.00479066      -1.14606318
Al       7.02500000      15.12500000      15.28443042       0.38179078       0.17794029       0.16195689
Al       5.00000000      17.15000000       5.00000000      -0.16041016       0.01142258      -0.51784200
Al       5.00000000      19.17500000       7.02500000      -0.08043400      -0.20481527       1.52680448
Al       7.02500000      17.15000000       7.02500000       0.41219665      -0.01111568       1.80632080
Al       7.02500000      19.17500000       5.00000000       0.32502202       0.04238894      -0.87681824
Al       5.68700531      16.75144748       9.76794819       0.02246059      -0.00431021       0.01288705
Al       5.62922121      18.80340110      12.47997389       0.01387962       0.00000989      -0.00491456
Al       7.66752157      16.76718703      12.40745302      -0.02734355      -0.00280959      -0.00390392
Al       7.04353083      19.25264037       9.64915492       0.02482818      -0.02137410       0.01589369
Al       5.00000000      17.15000000      15.28443042       0.32453522       0.13629811       0.30850115
Al       5.00000000      19.17500000      17.93355340       0.23666713       0.03844269      -1.11646402
Al       7.02500000      17.15000000      17.93355340       0.34911084       0.01630035      -1.13745886
Al       7.02500000      19.17500000      15.28443042       0.40519193       0.01117006       0.11047380
Al       5.00000000      21.20000000       5.00000000      -0.08965855      -0.44239555      -0.30191953
Al       5.00000000      23.22500000       7.02500000       0.42513576      -0.42513576       0.91709634
Al       7.02500000      21.20000000       7.02500000       0.41951196      -0.41951196       1.65860880
Al       7.02500000      23.22500000       5.00000000       0.44239555       0.08965855      -0.30191953
Al       5.06214340      21.11782461       9.40429103      -0.02236213       0.01125026       0.01373279
Al       6.63181451      21.59318549      12.30205147       0.00916967      -0.00916967      -0.01277952
Al       8.65389900      19.57110100      12.51301863      -0.00417113       0.00417113       0.00827583
Al       7.10717539      23.16285660       9.40429103      -0.01125026       0.02236213       0.01373279
Al       5.00000000      21.20000000      15.28443042       0.47971465      -0.69586085       0.20232435
Al       5.00000000      23.22500000      17.93355340       0.87231854      -0.87231854      -0.95444203
Al       7.02500000      21.20000000      17.93355340       0.34240742      -0.34240742      -1.17960283
Al       7.02500000      23.22500000      15.28443042       0.69586085      -0.47971465       0.20232435
Al       9.05000000       5.00000000       5.00000000      -0.02808419      -0.17285871      -0.47311708
Al       9.05000000       7.02500000       7.02500000      -0.05193762       0.44110618       2.24787852
Al      11.07500000       5.00000000       7.02500000       0.14162572      -0.06155406       1.48714188
Al      11.07500000       7.02500000       5.00000000      -0.01388407       0.32197461      -0.91554442
Al       9.43799262       5.18730439       9.63692887       0.01594535       0.00319661       0.01172497
Al       9.58255430       7.33141238      12.78420573       0.03935386      -0.03151878       0.00087699
Al      11.29244278       5.15070626      12.48110181       0.00513843       0.02609142      -0.01205718
Al      11.00516909       7.68130227       9.87638445       0.01054838       0.02313481       0.00897424
Al       9.05000000       5.00000000      15.28443042       0.17441850       0.31741761       0.01372441
Al       9.05000000       7.02500000      17.93355340      -0.04018575       0.34953749      -1.15252275
Al      11.07500000       5.00000000      17.93355340      -0.01455557       0.22879355      -1.12555367
Al      11.07500000       7.02500000      15.28443042       0.21898005       0.31624420       0.49718259
Al       9.05000000       9.05000000       5.00000000      -0.03597280      -0.03515438      -0.97656616
Al       9.05000000      11.07500000       7.02500000      -0.03179283       0.24021719       1.71052122
Al      11.07500000       9.05000000       7.02500000       0.02579709       0.02953317       2.13681763
Al      11.07500000      11.07500000       5.00000000      -0.01463303      -0.01831000      -0.95584181
Al       9.19692581       9.91436071       9.70428887      -0.00068518      -0.05079205      -0.00555755
Al       8.95547688      11.79155556      12.56718305      -0.03322813      -0.00515509      -0.02436883
Al      10.88877353       9.77552692      12.46053290      -0.03502233      -0.01441959      -0.03068244
Al      11.88687355      10.71913638       9.74557767      -0.04728615      -0.04210834      -0.00629527
Al       9.05000000       9.05000000      15.28443042       0.06675896       0.14260224       0.27163073
Al       9.05000000      11.07500000      17.93355340      -0.04436086      -0.01652940      -1.09087137
Al      11.07500000       9.05000000      17.93355340      -0.01532673      -0.04721521      -1.09401050
Al      11.07500000      11.07500000      15.28443042      -0.01022490       0.05644022      -0.02387879
Al       9.05000000      13.10000000       5.00000000      -0.03990813      -0.00716584      -0.96981864
Al       9.05000000      15.12500000       7.02500000       0.04810694      -0.03573000       1.95877366
Al      11.07500000      13.10000000       7.02500000       0.03134916      -0.02744428       1.87951941
Al      11.07500000      15.12500000       5.00000000      -0.01526523       0.00412069      -0.94655603
Al       9.83101309      12.72603463       9.78168693      -0.00146613       0.02105391      -0.01571327
Al       9.65881828      14.76194787      12.53843219      -0.05421412       0.01306322      -0.00135393
Al      11.67988845      12.77501685      12.43175469      -0.05180824      -0.00541323      -0.01292139
Al      10.91588101      15.33474851       9.67835376      -0.03327492       0.02638338      -0.02193386
Al       9.05000000      13.10000000      15.28443042      -0.01981081       0.12749296       0.25167344
Al       9.05000000      15.12500000      17.93355340      -0.04482575       0.00397257      -1.08920956
Al      11.07500000      13.10000000      17.93355340      -0.01694128      -0.00607665      -1.08727276
Al      11.07500000      15.12500000      15.28443042       0.04503937       0.00622324       0.08719316
Al       9.05000000      17.15000000       5.00000000      -0.04121860       0.01791682      -0.93155167
Al       9.05000000      19.17500000       7.02500000      -0.14591022       0.14591022       1.86039989
Al      11.07500000      17.15000000       7.02500000      -0.04974626       0.04974626       1.98010157
Al      11.07500000      19.17500000       5.00000000      -0.01791682       0.04121860      -0.93155167
Al       8.93670833      17.28747804       9.53659695       0.00003802      -0.00948454      -0.00619666
Al      10.66351770      17.56148230      12.28340645      -0.03158513       0.03158513      -0.00752550
Al      12.66870358      15.55629642      12.46987628      -0.03329440       0.03329440      -0.00287360
Al      10.93752196      19.28829167       9.53659695       0.00948454      -0.00003802      -0.00619666
Al       9.05000000      17.15000000      15.28443042       0.01202927       0.02189424      -0.14432096
Al       9.05000000      19.17500000      17.93355340      -0.04446551       0.04446551      -1.08658139
Al      11.07500000      17.15000000      17.93355340      -0.01692976       0.01692976      -1.08098957
Al      11.07500000      19.17500000      15.28443042      -0.02189424      -0.01202927      -0.14432096
Al       9.05000000      21.20000000       5.00000000      -0.04238894      -0.32502202      -0.87681824
Al       9.05000000      23.22500000       7.02500000       0.20481527       0.08043400       1.52680448
Al      11.07500000      21.20000000       7.02500000       0.01111568      -0.41219665       1.80632080
Al      11.07500000      23.22500000       5.00000000      -0.01142258       0.16041016      -0.51784200
Al       8.97235963      21.18146917       9.64915492       0.02137410      -0.02482818       0.01589369
Al       9.42159890      22.59577879      12.47997389      -0.00000989      -0.01387962      -0.00491456
Al      11.45781297      20.55747843      12.40745302       0.00280959       0.02734355      -0.00390392
Al      11.47355252      22.53799469       9.76794819       0.00431021      -0.02246059       0.01288705
Al       9.05000000      21.20000000      15.28443042      -0.01117006      -0.40519193       0.11047380
Al       9.05000000      23.22500000      17.93355340      -0.03844269      -0.23666713      -1.11646402
Al      11.07500000      21.20000000      17.93355340      -0.01630035      -0.34911084      -1.13745886
Al      11.07500000      23.22500000      15.28443042      -0.13629811      -0.32453522       0.30850115
Al      13.10000000       5.00000000       5.00000000      -0.00712655      -0.15843110      -0.50753657
Al      13.10000000       7.02500000       7.02500000       0.01397545       0.52109603       1.98636552
Al      15.12500000       5.00000000       7.02500000       0.04840435      -0.19274287       1.69698294
Al      15.12500000       7.02500000       5.00000000       0.00918765       0.32368918      -0.88861365
Al      12.97232947       5.59625849       9.74208809      -0.02768723       0.01347881       0.01090296
Al      12.78930870       7.63662054      12.62304923      -0.05949295       0.00695805      -0.00821059
Al      14.91124477       5.66262227      12.45293449      -0.02535688      -0.00339993      -0.01773438
Al      15.71464939       6.75051793       9.59236003      -0.05327434       0.02478380       0.01261890
Al      13.10000000       5.00000000      15.28443042      -0.03457396       0.37667846      -0.05130927
Al      13.10000000       7.02500000      17.93355340      -0.00283546       0.34994409      -1.14528167
Al      15.12500000       5.00000000      17.93355340       0.00423378       0.23609500      -1.10896900
Al      15.12500000       7.02500000      15.28443042       0.00732215       0.45304160       0.12704414
Al      13.10000000       9.05000000       5.00000000      -0.00282040      -0.04238719      -0.97237751
Al      13.10000000      11.07500000       7.02500000       0.08473437       0.00002582       1.80716218
Al      15.12500000       9.05000000       7.02500000       0.04153877      -0.03490658       2.13540767
Al      15.12500000      11.07500000       5.00000000       0.00441496      -0.01580038      -0.95385104
Al      13.75540747       8.65903393       9.86001390      -0.02337844      -0.01932690      -0.00435974
Al      13.61726188      10.76272764      12.55453181      -0.02601659      -0.03435384      -0.00994583
Al      15.52329668       8.76757653      12.58453799      -0.02953304      -0.01129435       0.00745443
Al      14.88049007      11.34454039       9.66166206      -0.01426383       0.00048317      -0.02522679
Al      13.10000000       9.05000000      15.28443042       0.00231638       0.10286599       0.18791382
Al      13.10000000      11.07500000      17.93355340      -0.00283516      -0.01970920      -1.09001383
Al      15.12500000       9.05000000      17.93355340       0.00656263      -0.04651281      -1.09514169
Al      15.12500000      11.07500000      15.28443042       0.09334292      -0.02902694       0.03818593
Al      13.10000000      13.10000000       5.00000000      -0.00405173      -0.00534808      -0.93324210
Al      13.10000000      15.12500000       7.02500000      -0.15709751       0.15709751       1.88883571
Al      15.12500000      13.10000000       7.02500000      -0.10468018       0.10468018       1.98647018
Al      15.12500000      15.12500000       5.00000000       0.00534808       0.00405173      -0.93324210
Al      12.90423095      13.35630582       9.57890439      -0.04556097      -0.01082800      -0.02761907
Al      14.66349611      13.56150389      12.28404917      -0.01948976       0.01948976      -0.01071341
Al      14.86869418      15.32076905       9.57890439       0.01082800       0.04556097      -0.02761907
Al      13.10000000      13.10000000      15.28443042       0.05608228       0.00030129      -0.11822912
Al      13.10000000      15.12500000      17.93355340      -0.00494074       0.00494074      -1.08449676
Al      15.12500000      13.10000000      17.93355340       0.00741584      -0.00741584      -1.08102353
Al      15.12500000      15.12500000      15.28443042      -0.00030129      -0.05608228      -0.11822912
Al      13.10000000      17.15000000       5.00000000      -0.00412069       0.01526523      -0.94655603
Al      13.10000000      19.17500000       7.02500000       0.03573000      -0.04810694       1.95877366
Al      15.12500000      17.15000000       7.02500000       0.02744428      -0.03134916       1.87951941
Al      15.12500000      19.17500000       5.00000000       0.00716584       0.03990813      -0.96981864
Al      12.89025149      17.30911899       9.67835376      -0.02638338       0.03327492      -0.02193386
Al      13.46305213      18.56618172      12.53843219      -0.01306322       0.05421412      -0.00135393
Al      15.44998315      16.54511155      12.43175469       0.00541323       0.05180824      -0.01292139
Al      15.49896537      18.39398691       9.78168693      -0.02105391       0.00146613      -0.01571327
Al      13.10000000      17.15000000      15.28443042      -0.00622324      -0.04503937       0.08719316
Al      13.10000000      19.17500000      17.93355340      -0.00397257       0.04482575      -1.08920956
Al      15.12500000      17.15000000      17.93355340       0.00607665       0.01694128      -1.08727276
Al      15.12500000      19.17500000      15.28443042      -0.12749296       0.01981081       0.25167344
Al      13.10000000      21.20000000       5.00000000      -0.00639262      -0.32651900      -0.91140275
Al      13.10000000      23.22500000       7.02500000      -0.00070269       0.05495251       1.58005720
Al      15.12500000      21.20000000       7.02500000      -0.11546625      -0.35664353       2.04313529
Al      15.12500000      23.22500000       5.00000000      -0.00250624       0.16901936      -0.51343278
Al      13.53096416      20.44822255       9.81034789      -0.01063461       0.00138357      -0.00053440
Al      12.60166470      23.22413995      12.65445980      -0.01740965      -0.03558785      -0.01005474
Al      14.58827953      21.28574775      12.61858469      -0.03358669       0.00792344      -0.00019201
Al      14.56817386      23.14356548       9.88402989      -0.03971043       0.00126454       0.00334071
Al      13.10000000      21.20000000      15.28443042      -0.17794029      -0.38179078       0.16195689
Al      13.10000000      23.22500000      17.93355340      -0.00833097      -0.22170897      -1.13995823
Al      15.12500000      21.20000000      17.93355340       0.00479066      -0.34912284      -1.14606318
Al      15.12500000      23.22500000      15.28443042      -0.10236111      -0.25859718      -0.12441122
Al      17.15000000       5.00000000       5.00000000       0.02158624      -0.16266327      -0.50177696
Al      17.15000000       7.02500000       7.02500000       0.14402058       0.33297751       1.55576189
Al      19.17500000       5.00000000       7.02500000      -0.09360064      -0.07962443       1.67687563
Al      19.17500000       7.02500000       5.00000000       0.04128064       0.33117899      -0.87773375
Al      17.74002511       4.86980662      10.03368257       0.02412419      -0.02786386       0.01139309
Al      17.56552134       6.93620694      12.47653164      -0.02554205       0.00925926      -0.02024151
Al      19.52055491       5.00954050      12.75061895       0.01518214      -0.01491859       0.00128756
Al      18.83083399       7.43345636       9.54969633      -0.00347210      -0.04615538       0.00798533
Al      17.15000000       5.00000000      15.28443042       0.06164207       0.30934301      -0.19305889
Al      17.15000000       7.02500000      17.93355340       0.01625311       0.35058853      -1.14085860
Al      19.17500000       5.00000000      17.93355340       0.04064041       0.22763242      -1.14923006
Al      19.17500000       7.02500000      15.28443042       0.15345759       0.42003000      -0.10757179
Al      17.15000000       9.05000000       5.00000000       0.01895974      -0.04932122      -0.95411790
Al      17.15000000      11.07500000       7.02500000      -0.04043136       0.04043136       2.18282728
Al      19.17500000       9.05000000       7.02500000      -0.20190426       0.20190426       1.66799771
Al      19.17500000      11.07500000       5.00000000       0.04932122      -0.01895974      -0.95411790
Al      16.85610971       9.37517284       9.77074412      -0.01984320      -0.01290531       0.00318775
Al      16.63166892      11.59333108      12.41739266      -0.00829263       0.00829263      -0.01148099
Al      18.56832295       9.65667705      12.49615792       0.00982511      -0.00982511       0.00940780
Al      18.84982716      11.36889029       9.77074412       0.01290531       0.01984320       0.00318775
Al      17.15000000       9.05000000      15.28443042       0.02619021      -0.05045028       0.08405650
Al      17.15000000      11.07500000      17.93355340       0.01919845      -0.01919845      -1.08662371
Al      19.17500000       9.05000000      17.93355340       0.04176617      -0.04176617      -1.08384958
Al      19.17500000      11.07500000      15.28443042       0.05045028      -0.02619021       0.08405650
Al      17.15000000      13.10000000       5.00000000       0.01580038      -0.00441496      -0.95385104
Al      17.15000000      15.12500000       7.02500000      -0.00002582      -0.08473437       1.80716218
Al      19.17500000      13.10000000       7.02500000       0.03490658      -0.04153877       2.13540767
Al      19.17500000      15.12500000       5.00000000       0.04238719       0.00282040      -0.97237751
Al      16.88045961      13.34450993       9.66166206      -0.00048317       0.01426383      -0.02522679
Al      17.46227236      14.60773812      12.55453181       0.03435384       0.02601659      -0.00994583
Al      19.45742347      12.70170332      12.58453799       0.01129435       0.02953304       0.00745443
Al      19.56596607      14.46959253       9.86001390       0.01932690       0.02337844      -0.00435974
Al      17.15000000      13.10000000      15.28443042       0.02902694      -0.09334292       0.03818593
Al      17.15000000      15.12500000      17.93355340       0.01970920       0.00283516      -1.09001383
Al      19.17500000      13.10000000      17.93355340       0.04651281      -0.00656263      -1.09514169
Al      19.17500000      15.12500000      15.28443042      -0.10286599      -0.00231638       0.18791382
Al      17.15000000      17.15000000       5.00000000       0.01831000       0.01463303      -0.95584181
Al      17.15000000      19.17500000       7.02500000      -0.24021719       0.03179283       1.71052122
Al      19.17500000      17.15000000       7.02500000      -0.02953317      -0.02579709       2.13681763
Al      19.17500000      19.17500000       5.00000000       0.03515438       0.03597280      -0.97656616
Al      17.50586362      16.33812645       9.74557767       0.04210834       0.04728615      -0.00629527
Al      16.43344444      19.26952312      12.56718305       0.00515509       0.03322813      -0.02436883
Al      18.44947308      17.33622647      12.46053290       0.01441959       0.03502233      -0.03068244
Al      18.31063929      19.02807419       9.70428887       0.05079205       0.00068518      -0.00555755
Al      17.15000000      17.15000000      15.28443042      -0.05644022       0.01022490      -0.02387879
Al      17.15000000      19.17500000      17.93355340       0.01652940       0.04436086      -1.09087137
Al      19.17500000      17.15000000      17.93355340       0.04721521       0.01532673      -1.09401050
Al      19.17500000      19.17500000      15.28443042      -0.14260224      -0.06675896       0.27163073
Al      17.15000000      21.20000000       5.00000000       0.01737784      -0.32750268      -0.91483311
Al      17.15000000      23.22500000       7.02500000      -0.10094418       0.05437352       1.84212169
Al      19.17500000      21.20000000       7.02500000       0.06291064      -0.63457973       2.01487606
Al      19.17500000      23.22500000       5.00000000       0.03950935       0.15105087      -0.51480210
Al      16.55138078      21.14823191       9.79676151      -0.01235352      -0.04474131       0.00010972
Al      17.11100421      22.74675781      12.51664315      -0.00865803      -0.02431646      -0.00580183
Al      18.88014990      20.52590979      12.51760223      -0.03348299      -0.02747207       0.00348484
Al      19.09177536      22.55495280       9.72426797      -0.00832779      -0.01702657       0.01033896
Al      17.15000000      21.20000000      15.28443042      -0.04914655      -0.48013015       0.03317956
Al      17.15000000      23.22500000      17.93355340       0.01736273      -0.23276915      -1.11665016
Al      19.17500000      21.20000000      17.93355340       0.04378200      -0.34843050      -1.14176463
Al      19.17500000      23.22500000      15.28443042      -0.12251099      -0.36119103       0.11144665
Al      21.20000000       5.00000000       5.00000000      -0.45126511      -0.06283466      -0.40236989
Al      21.20000000       7.02500000       7.02500000      -0.47740522       0.47740522       1.94925978
Al      23.22500000       5.00000000       7.02500000      -0.63372919       0.63372919       1.21163425
Al      23.22500000       7.02500000       5.00000000       0.06283466       0.45126511      -0.40236989
Al      20.78344219       5.41511359       9.74649072       0.02301234       0.01307627       0.01882078
Al      20.49351016       7.73148984      12.15353271       0.02465143      -0.02465143      -0.02909520
Al      22.42507732       5.79992268      12.53370225      -0.00992062       0.00992062      -0.02310946
Al      22.80988641       7.44155781       9.74649072      -0.01307627      -0.02301234       0.01882078
Al      21.20000000       5.00000000      15.28443042      -0.39183755       0.35475732       0.53757575
Al      21.20000000       7.02500000      17.93355340      -0.34511702       0.34511702      -1.17858762
Al      23.22500000       5.00000000      17.93355340      -0.86170318       0.86170318      -1.00442011
Al      23.22500000       7.02500000      15.28443042      -0.35475732       0.39183755       0.53757575
Al      21.20000000       9.05000000       5.00000000      -0.33117899      -0.04128064      -0.87773375
Al      21.20000000      11.07500000       7.02500000      -0.33297751      -0.14402058       1.55576189
Al      23.22500000       9.05000000       7.02500000       0.07962443       0.09360064       1.67687563
Al      23.22500000      11.07500000       5.00000000       0.16266327      -0.02158624      -0.50177696
Al      20.79154364       9.39416601       9.54969633       0.04615538       0.00347210       0.00798533
Al      21.28879306      10.65947866      12.47653164      -0.00925926       0.02554205      -0.02024151
Al      23.21545950       8.70444509      12.75061895       0.01491859      -0.01518214       0.00128756
Al      23.35519338      10.48497489      10.03368257       0.02786386      -0.02412419       0.01139309
Al      21.20000000       9.05000000      15.28443042      -0.42003000      -0.15345759      -0.10757179
Al      21.20000000      11.07500000      17.93355340      -0.35058853      -0.01625311      -1.14085860
Al      23.22500000       9.05000000      17.93355340      -0.22763242      -0.04064041      -1.14923006
Al      23.22500000      11.07500000      15.28443042      -0.30934301      -0.06164207      -0.19305889
Al      21.20000000      13.10000000       5.00000000      -0.32368918      -0.00918765      -0.88861365
Al      21.20000000      15.12500000       7.02500000      -0.52109603      -0.01397545       1.98636552
Al      23.22500000      13.10000000       7.02500000       0.19274287      -0.04840435       1.69698294
Al      23.22500000      15.12500000       5.00000000       0.15843110       0.00712655      -0.50753657
Al      21.47448207      12.51035061       9.59236003      -0.02478380       0.05327434       0.01261890
Al      20.58837946      15.43569130      12.62304923      -0.00695805       0.05949295      -0.00821059
Al      22.56237773      13.31375523      12.45293449       0.00339993       0.02535688      -0.01773438
Al      22.62874151      15.25267053       9.74208809      -0.01347881       0.02768723       0.01090296
Al      21.20000000      13.10000000      15.28443042      -0.45304160      -0.00732215       0.12704414
Al      21.20000000      15.12500000      17.93355340      -0.34994409       0.00283546      -1.14528167
Al      23.22500000      13.10000000      17.93355340      -0.23609500      -0.00423378      -1.10896900
Al      23.22500000      15.12500000      15.28443042      -0.37667846       0.03457396      -0.05130927
Al      21.20000000      17.15000000       5.00000000      -0.32197461       0.01388407      -0.91554442
Al      21.20000000      19.17500000       7.02500000      -0.44110618       0.05193762       2.24787852
Al      23.22500000      17.15000000       7.02500000       0.06155406      -0.14162572       1.48714188
Al      23.22500000      19.17500000       5.00000000       0.17285871       0.02808419      -0.47311708
Al      20.54369773      17.21983091       9.87638445      -0.02313481      -0.01054838       0.00897424
Al      20.89358762      18.64244570      12.78420573       0.03151878      -0.03935386       0.00087699
Al      23.07429374      16.93255722      12.48110181      -0.02609142      -0.00513843      -0.01205718
Al      23.03769561      18.78700738       9.63692887      -0.00319661      -0.01594535       0.01172497
Al      21.20000000      17.15000000      15.28443042      -0.31624420      -0.21898005       0.49718259