299
Lattice="28.224999999999998 0.0 0.0 0.0 28.224999999999998 0.0 0.0 0.0 20.125" Properties=species:S:1:pos:R:3:forces:R:3 energy=-16368.882855171962 pbc="T T T"
Al       5.00000000       5.00000000       5.00000000       0.41823005       0.41310334      -0.18218139
Al       5.00000000       7.02500000       7.02500000      -0.21408225       0.66958707       0.96356838
Al       7.02500000       5.00000000       7.02500000       0.72404779      -0.40891970       0.76900672
Al       7.02500000       7.02500000       5.00000000       0.32657581       0.31453739      -0.86096508
Al       6.63594738       6.52095748       9.42173474       0.03125553       0.01940723      -0.00891356
Al       5.75911182       7.50081668      12.75107274       0.01383167      -0.00988145      -0.01072898
Al       7.68550209       5.29394180      12.62622952       0.01314600      -0.01066441      -0.02212355
Al       8.45820674       7.69445752      11.06598216       0.04280181      -0.00297580       0.00563881
Al       5.00000000       5.00000000      15.56537919       1.17218979       1.10319788       0.12610071
Al       5.00000000       7.02500000      18.29477324       0.36035463       0.49231585      -1.24798835
Al       7.02500000       5.00000000      18.29477324       0.49677536       0.35806816      -1.25382096
Al       7.02500000       7.02500000      15.56537919       0.52076437       0.39687055       0.34998381
Al       5.00000000       9.05000000       5.00000000      -0.14490705      -0.04255272      -0.59915955
Al       5.00000000      11.07500000       7.02500000       0.04777334       0.06060057       1.89524644
Al       7.02500000       9.05000000       7.02500000       0.33023703      -0.09920554       1.86544690
Al       7.02500000      11.07500000       5.00000000       0.34946008      -0.02099972      -0.95258365
Al       5.96793917       9.25392583       9.98643357       0.01210914      -0.00160001       0.01879490
Al       5.51794795      11.27039807      12.58233818       0.01397555       0.00748782      -0.00596323
Al       7.62996082       9.51249384      13.08927598       0.03485502       0.01379381       0.00485910
Al       7.28888259      11.70475014       9.85596902       0.02377940       0.01039318      -0.01646582
Al       5.00000000       9.05000000      15.56537919       0.44637428       0.10487994       0.06737197
Al       5.00000000      11.07500000      18.29477324       0.25081499      -0.01467187      -1.15755017
Al       7.02500000       9.05000000      18.29477324       0.36131320      -0.04157615      -1.21603301
Al       7.02500000      11.07500000      15.56537919       0.35823039       0.29802310       0.34429833
Al       5.00000000      13.10000000       5.00000000      -0.16842985       0.00303185      -0.57955130
Al       5.00000000      15.12500000       7.02500000      -0.08494831      -0.03649588       1.55381558
Al       7.02500000      13.10000000       7.02500000       0.41436986       0.14122647       2.19692170
Al       7.02500000      15.12500000       5.00000000       0.33626399       0.01447291      -0.96736956
Al       5.23997148      13.65440349       9.95927304       0.01021150       0.00596602      -0.00075117
Al       4.99037744      15.80408013      12.75302453      -0.00401381       0.00486189      -0.01033426
Al       6.86578409      13.79467871      12.92670935       0.02129952       0.01022078       0.00793654
Al       7.99598003      14.60571680      10.12013880       0.03723139       0.00528426       0.01467852
Al       5.00000000      13.10000000      15.56537919       0.28104376       0.08744640      -0.02472391
Al       5.00000000      15.12500000      18.29477324       0.24479983       0.00787909      -1.17641392
Al       7.02500000      13.10000000      18.29477324       0.35819310      -0.00074371      -1.20675531
Al       7.02500000      15.12500000      15.56537919       0.40263057       0.33656143       0.34317245
Al       5.00000000      17.15000000       5.00000000      -0.16028269       0.00905687      -0.57569387
Al       5.00000000      19.17500000       7.02500000      -0.01537369      -0.26926094       1.49014357
Al       7.02500000      17.15000000       7.02500000       0.31536676       0.08344604       1.58062030
Al       7.02500000      19.17500000       5.00000000       0.33166521       0.03256558      -0.96561824
Al       5.80871178      16.65869014       9.75509480       0.00969691      -0.00505299      -0.01854217
Al       5.62658108      18.83970983      12.85597326      -0.01135302       0.00105727       0.00858823
Al       7.66509295      16.85331878      12.37700351       0.01955967      -0.00705585      -0.00990183
Al       7.19936479      19.11268145      10.14980558       0.01479101      -0.01447604       0.03447772
Al       5.00000000      17.15000000      15.56537919       0.31505259       0.04354443       0.34364189
Al       5.00000000      19.17500000      18.29477324       0.25390387       0.03758903      -1.17290257
Al       7.02500000      17.15000000      18.29477324       0.35771724       0.01648813      -1.19778783
Al       7.02500000      19.17500000      15.56537919       0.27075923       0.00810591       0.64988762
Al       5.00000000      21.20000000       5.00000000      -0.08522514      -0.44528928      -0.38962349
Al       5.00000000      23.22500000       7.02500000       0.53390740      -0.53390740       1.07133834
Al       7.02500000      21.20000000       7.02500000       0.56946325      -0.56946325       1.73756967
Al       7.02500000      23.22500000       5.00000000       0.44528928       0.08522514      -0.38962349
Al       5.22651225      20.95470177       9.48157559       0.00959758      -0.01463242      -0.01213509
Al       6.69460759      21.53039241      12.44850967      -0.01147704       0.01147704      -0.01621759
Al       8.70526035      19.51973965      13.08787226       0.01637167      -0.01637167       0.03154018
Al       7.27029823      22.99848776       9.48157559       0.01463242      -0.00959758      -0.01213509
Al       5.00000000      21.20000000      15.56537919       0.53091527      -0.71552022       0.26305643
Al       5.00000000      23.22500000      18.29477324       0.88842608      -0.88842608      -1.00508085
Al       7.02500000      21.20000000      18.29477324       0.34837634      -0.34837634      -1.24275318
Al       7.02500000      23.22500000      15.56537919       0.71552022      -0.53091527       0.26305643
Al       9.05000000       5.00000000       5.00000000      -0.02771528      -0.16410569      -0.50019431
Al       9.05000000       7.02500000       7.02500000      -0.06330628       0.58211073       2.07033050
Al      11.07500000       5.00000000       7.02500000       0.16709345      -0.07693535       1.40383313
Al      11.07500000       7.02500000       5.00000000      -0.01134193       0.33097162      -0.93876370
Al       9.39161232       5.36474838       9.55301263       0.01949887       0.00409960      -0.01971333
Al       9.41149691       7.29659489      13.50444666       0.02352792       0.00375782       0.01633215
Al      11.13525910       5.45088550      12.24469672       0.01906630       0.02720308      -0.03581660
Al      11.18125355       7.63476153       9.83515244       0.02713149       0.02409866      -0.03501478
Al       9.05000000       5.00000000      15.56537919       0.07321622       0.20940952       0.23791787
Al       9.05000000       7.02500000      18.29477324      -0.03154598       0.35798970      -1.24904178
Al      11.07500000       5.00000000      18.29477324      -0.01364139       0.25730128      -1.15898831
Al      11.07500000       7.02500000      15.56537919       0.75172804       0.11901665       1.63693889
Al       9.05000000       9.05000000       5.00000000      -0.02408461      -0.02458942      -0.94638069
Al       9.05000000      11.07500000       7.02500000       0.00781386       0.70376313       1.06454052
Al      11.07500000       9.05000000       7.02500000       0.14007129      -0.05890675       1.62630706
Al      11.07500000      11.07500000       5.00000000      -0.01114591      -0.02341694      -0.96816699
Al       9.08537844       9.55233616       9.28581343       0.00669965      -0.01046302      -0.01853782
Al       8.84138530      11.96260557      12.61871765       0.03118078       0.00790365      -0.01320161
Al      10.57847099       9.75750459      12.25690269       0.02703681       0.00701334      -0.04961822
Al      11.96110731      10.48022068       9.66925584       0.01431548      -0.00123532      -0.03401017
Al       9.05000000       9.05000000      15.56537919       0.20513615       0.65787569       1.46786985
Al       9.05000000      11.07500000      18.29477324      -0.03749189      -0.01496249      -1.15289705
Al      11.07500000       9.05000000      18.29477324      -0.01049819      -0.04763059      -1.16605033
Al      11.07500000      11.07500000      15.56537919      -0.06213168      -0.10918101      -0.36512229
Al       9.05000000      13.10000000       5.00000000      -0.02537857      -0.01262336      -1.02051252
Al       9.05000000      15.12500000       7.02500000       0.00918320      -0.23784622       2.10710219
Al      11.07500000      13.10000000       7.02500000       0.08614702       0.01060916       1.93395824
Al      11.07500000      15.12500000       5.00000000      -0.01082363       0.00442712      -1.00500850
Al      10.00144166      12.48886899       9.79611566       0.02552690       0.00075274      -0.02029830
Al       9.58943671      14.92562277      12.96127414       0.03131945       0.00830564       0.01158204
Al      11.56198239      12.88749297      12.60081246       0.02630233      -0.00741898      -0.02129373
Al      10.97604904      15.23095906       9.89345510       0.01479177       0.00068391      -0.01086572
Al       9.05000000      13.10000000      15.56537919      -0.04867981      -0.00578854       0.16871860
Al       9.05000000      15.12500000      18.29477324      -0.03607472       0.00365844      -1.16347982
Al      11.07500000      13.10000000      18.29477324      -0.00798349      -0.00236385      -1.15885597
Al      11.07500000      15.12500000      15.56537919       0.14166394      -0.05031303       0.54300536
Al       9.05000000      17.15000000       5.00000000      -0.02754663       0.01745932      -0.94096934
Al       9.05000000      19.17500000       7.02500000      -0.32655286       0.32655286       1.84202514
Al      11.07500000      17.15000000       7.02500000       0.18187396      -0.18187396       1.89433743
Al      11.07500000      19.17500000       5.00000000      -0.01745932       0.02754663      -0.94096934
Al       8.99558086      17.18579312       9.32777175       0.00922829      -0.00268114      -0.04273679
Al      10.57434039      17.65065961      11.95327466       0.00093777      -0.00093777      -0.04668493
Al      12.54731482      15.67768518      12.82341355       0.00285480      -0.00285480      -0.00277153
Al      11.03920688      19.22941914       9.32777175       0.00268114      -0.00922829      -0.04273679
Al       9.05000000      17.15000000      15.56537919      -0.03130845      -0.00405812      -0.22860226
Al       9.05000000      19.17500000      18.29477324      -0.04141435       0.04141435      -1.16392742
Al      11.07500000      17.15000000      18.29477324      -0.01093686       0.01093686      -1.15303801
Al      11.07500000      19.17500000      15.56537919       0.00405812       0.03130845      -0.22860226
Al       9.05000000      21.20000000       5.00000000      -0.03256558      -0.33166521      -0.96561824
Al       9.05000000      23.22500000       7.02500000       0.26926094       0.01537369       1.49014357
Al      11.07500000      21.20000000       7.02500000      -0.08344604      -0.31536676       1.58062030
Al      11.07500000      23.22500000       5.00000000      -0.00905687       0.16028269      -0.57569387
Al       9.11231855      21.02563521      10.14980558       0.01447604      -0.01479101       0.03447772
Al       9.38529017      22.59841892      12.85597326      -0.00105727       0.01135302       0.00858823
Al      11.37168122      20.55990705      12.37700351       0.00705585      -0.01955967      -0.00990183
Al      11.56630986      22.41628822       9.75509480       0.00505299      -0.00969691      -0.01854217
Al       9.05000000      21.20000000      15.56537919      -0.00810591      -0.27075923       0.64988762
Al       9.05000000      23.22500000      18.29477324      -0.03758903      -0.25390387      -1.17290257
Al      11.07500000      21.20000000      18.29477324      -0.01648813      -0.35771724      -1.19778783
Al      11.07500000      23.22500000      15.56537919      -0.04354443      -0.31505259       0.34364189
Al      13.10000000       5.00000000       5.00000000      -0.00271186      -0.15688516      -0.52381094
Al      13.10000000       7.02500000       7.02500000       0.01410826       0.62440185       2.01469602
Al      15.12500000       5.00000000       7.02500000       0.05229328      -0.33679593       1.48301498
Al      15.12500000       7.02500000       5.00000000       0.01110355       0.32620172      -0.90880059
Al      13.03144739       5.49044639       9.64598973       0.01485701       0.01236643      -0.01121690
Al      12.52161823       7.81882675      13.04291828      -0.00085584       0.01062300       0.01534656
Al      14.65960580       5.95512840      12.45553661      -0.00379696       0.01071938      -0.02539109
Al      15.64050996       6.82360331       9.39316442      -0.02129497       0.04121350      -0.03702730
Al      13.10000000       5.00000000      15.56537919      -0.12557094       0.49589592      -0.08402532
Al      13.10000000       7.02500000      18.29477324      -0.00130377       0.35983156      -1.21418238
Al      15.12500000       5.00000000      18.29477324       0.00329828       0.25794633      -1.14856197
Al      15.12500000       7.02500000      15.56537919      -0.04927088       0.31384450       0.30544366
Al      13.10000000       9.05000000       5.00000000      -0.00475518      -0.03079573      -1.02384416
Al      13.10000000      11.07500000       7.02500000       0.07094054       0.11356222       1.55986293
Al      15.12500000       9.05000000       7.02500000      -0.02583250      -0.03679092       2.42744966
Al      15.12500000      11.07500000       5.00000000       0.00242933      -0.00552337      -0.98292528
Al      13.88416752       8.57418174      10.53029523       0.00478272       0.01107259       0.02721841
Al      13.43735175      10.82229516      12.69471480       0.00950407       0.00950226      -0.01595582
Al      15.41902950       8.91210855      13.17383195       0.01036199       0.01118222       0.02079229
Al      14.96699609      11.19771513       9.58062054      -0.00438632      -0.00715695      -0.02853305
Al      13.10000000       9.05000000      15.56537919       0.10762184       0.28781010       0.74346461
Al      13.10000000      11.07500000      18.29477324       0.00231231      -0.01415039      -1.15943754
Al      15.12500000       9.05000000      18.29477324       0.00619353      -0.03950690      -1.18111175
Al      15.12500000      11.07500000      15.56537919       0.07310999       0.05526254       0.00691528
Al      13.10000000      13.10000000       5.00000000       0.00374818      -0.01025159      -0.97507574
Al      13.10000000      15.12500000       7.02500000      -0.09926982       0.09926982       2.19359514
Al      15.12500000      13.10000000       7.02500000      -0.11374693       0.11374693       1.95403405
Al      15.12500000      15.12500000       5.00000000       0.01025159      -0.00374818      -0.97507574
Al      12.98124340      13.22794298       9.66188735       0.00837903      -0.00082899      -0.01103916
Al      14.58336765      13.64163235      12.49958360      -0.00127883       0.00127883      -0.01555672
Al      14.99705702      15.24375660       9.66188735       0.00082899      -0.00837903      -0.01103916
Al      13.10000000      13.10000000      15.56537919       0.00053388       0.03437214      -0.11308418
Al      13.10000000      15.12500000      18.29477324      -0.00187650       0.00187650      -1.16430822
Al      15.12500000      13.10000000      18.29477324       0.00541167      -0.00541167      -1.15543628
Al      15.12500000      15.12500000      15.56537919      -0.03437214      -0.00053388      -0.11308418
Al      13.10000000      17.15000000       5.00000000      -0.00442712       0.01082363      -1.00500850
Al      13.10000000      19.17500000       7.02500000       0.23784622      -0.00918320       2.10710219
Al      15.12500000      17.15000000       7.02500000      -0.01060916      -0.08614702       1.93395824
Al      15.12500000      19.17500000       5.00000000       0.01262336       0.02537857      -1.02051252
Al      12.99404094      17.24895096       9.89345510      -0.00068391      -0.01479177      -0.01086572
Al      13.29937723      18.63556329      12.96127414      -0.00830564      -0.03131945       0.01158204
Al      15.33750703      16.66301761      12.60081246       0.00741898      -0.02630233      -0.02129373
Al      15.73613101      18.22355834       9.79611566      -0.00075274      -0.02552690      -0.02029830
Al      13.10000000      17.15000000      15.56537919       0.05031303      -0.14166394       0.54300536
Al      13.10000000      19.17500000      18.29477324      -0.00365844       0.03607472      -1.16347982
Al      15.12500000      17.15000000      18.29477324       0.00236385       0.00798349      -1.15885597
Al      15.12500000      19.17500000      15.56537919       0.00578854       0.04867981       0.16871860
Al      13.10000000      21.20000000       5.00000000      -0.01447291      -0.33626399      -0.96736956
Al      13.10000000      23.22500000       7.02500000       0.03649588       0.08494831       1.55381558
Al      15.12500000      21.20000000       7.02500000      -0.14122647      -0.41436986       2.19692170
Al      15.12500000      23.22500000       5.00000000      -0.00303185       0.16842985      -0.57955130
Al      13.61928320      20.22901997      10.12013880      -0.00528426      -0.03723139       0.01467852
Al      12.42091987      23.23462256      12.75302453      -0.00486189       0.00401381      -0.01033426
Al      14.43032129      21.35921591      12.92670935      -0.01022078      -0.02129952       0.00793654
Al      14.57059651      22.98502852       9.95927304      -0.00596602      -0.01021150      -0.00075117
Al      13.10000000      21.20000000      15.56537919      -0.33656143      -0.40263057       0.34317245
Al      13.10000000      23.22500000      18.29477324      -0.00787909      -0.24479983      -1.17641392
Al      15.12500000      21.20000000      18.29477324       0.00074371      -0.35819310      -1.20675531
Al      15.12500000      23.22500000      15.56537919      -0.08744640      -0.28104376      -0.02472391
Al      17.15000000       5.00000000       5.00000000       0.01233938      -0.15280095      -0.53558651
Al      17.15000000       7.02500000       7.02500000       0.14201408       0.27350303       0.81073540
Al      19.17500000       5.00000000       7.02500000      -0.09574298      -0.09951567       1.72563020
Al      19.17500000       7.02500000       5.00000000       0.02855750       0.34797995      -0.88293060
Al      17.66365155       4.94362406      10.08977325      -0.01514334       0.02309086      -0.00478798
Al      17.37031108       7.10170673      12.28706314      -0.00782199       0.01725553      -0.03436050
Al      19.35008530       5.27740689      12.99663676      -0.01531709       0.01928200      -0.00210115
Al      18.82242974       7.39360235       9.32556395      -0.02206197       0.02681394      -0.02674554
Al      17.15000000       5.00000000      15.56537919       0.02782747       0.40089254      -0.02913081
Al      17.15000000       7.02500000      18.29477324       0.01111762       0.36077885      -1.19934467
Al      19.17500000       5.00000000      18.29477324       0.03566366       0.25024192      -1.18768044
Al      19.17500000       7.02500000      15.56537919       0.05764415       0.59195932      -0.03151817
Al      17.15000000       9.05000000       5.00000000       0.01482848      -0.05127791      -1.00904389
Al      17.15000000      11.07500000       7.02500000       0.11122927      -0.11122927       2.42267123
Al      19.17500000       9.05000000       7.02500000      -0.39958976       0.39958976       1.02161016
Al      19.17500000      11.07500000       5.00000000       0.05127791      -0.01482848      -1.00904389
Al      16.94080283       9.29038628      10.22373325      -0.01656404       0.02379294       0.00776023
Al      16.59795506      11.62704494      12.47350130      -0.02016686       0.02016686      -0.03569111
Al      18.57452324       9.65047676      13.09727178      -0.01239047       0.01239047       0.00990511
Al      18.93461372      11.28419717      10.22373325      -0.02379294       0.01656404       0.00776023
Al      17.15000000       9.05000000      15.56537919      -0.01905669      -0.12116674       0.99019973
Al      17.15000000      11.07500000      18.29477324       0.01566400      -0.01566400      -1.16726483
Al      19.17500000       9.05000000      18.29477324       0.03379629      -0.03379629      -1.15904512
Al      19.17500000      11.07500000      15.56537919       0.12116674       0.01905669       0.99019973
Al      17.15000000      13.10000000       5.00000000       0.00552337      -0.00242933      -0.98292528
Al      17.15000000      15.12500000       7.02500000      -0.11356222      -0.07094054       1.55986293
Al      19.17500000      13.10000000       7.02500000       0.03679092       0.02583250       2.42744966
Al      19.17500000      15.12500000       5.00000000       0.03079573       0.00475518      -1.02384416
Al      17.02728487      13.25800391       9.58062054       0.00715695       0.00438632      -0.02853305
Al      17.40270484      14.78764825      12.69471480      -0.00950226      -0.00950407      -0.01595582
Al      19.31289145      12.80597050      13.17383195      -0.01118222      -0.01036199       0.02079229
Al      19.65081826      14.34083248      10.53029523      -0.01107259      -0.00478272       0.02721841
Al      17.15000000      13.10000000      15.56537919      -0.05526254      -0.07310999       0.00691528
Al      17.15000000      15.12500000      18.29477324       0.01415039      -0.00231231      -1.15943754
Al      19.17500000      13.10000000      18.29477324       0.03950690      -0.00619353      -1.18111175
Al      19.17500000      15.12500000      15.56537919      -0.28781010      -0.10762184       0.74346461
Al      17.15000000      17.15000000       5.00000000       0.02341694       0.01114591      -0.96816699
Al      17.15000000      19.17500000       7.02500000      -0.70376313      -0.00781386       1.06454052
Al      19.17500000      17.15000000       7.02500000       0.05890675      -0.14007129       1.62630706
Al      19.17500000      19.17500000       5.00000000       0.02458942       0.02408461      -0.94638069
Al      17.74477932      16.26389269       9.66925584       0.00123532      -0.01431548      -0.03401017
Al      16.26239443      19.38361470      12.61871765      -0.00790365      -0.03118078      -0.01320161
Al      18.46749541      17.64652901      12.25690269      -0.00701334      -0.02703681      -0.04961822
Al      18.67266384      19.13962156       9.28581343       0.01046302      -0.00669965      -0.01853782
Al      17.15000000      17.15000000      15.56537919       0.10918101       0.06213168      -0.36512229
Al      17.15000000      19.17500000      18.29477324       0.01496249       0.03749189      -1.15289705
Al      19.17500000      17.15000000      18.29477324       0.04763059       0.01049819      -1.16605033
Al      19.17500000      19.17500000      15.56537919      -0.65787569      -0.20513615       1.46786985
Al      17.15000000      21.20000000       5.00000000       0.02099972      -0.34946008      -0.95258365
Al      17.15000000      23.22500000       7.02500000      -0.06060057      -0.04777334       1.89524644
Al      19.17500000      21.20000000       7.02500000       0.09920554      -0.33023703       1.86544690
Al      19.17500000      23.22500000       5.00000000       0.04255272       0.14490705      -0.59915955
Al      16.52024986      20.93611741       9.85596902      -0.01039318      -0.02377940      -0.01646582
Al      16.95460193      22.70705205      12.58233818      -0.00748782      -0.01397555      -0.00596323
Al      18.71250616      20.59503918      13.08927598      -0.01379381      -0.03485502       0.00485910
Al      18.97107417      22.25706083       9.98643357       0.00160001      -0.01210914       0.01879490
Al      17.15000000      21.20000000      15.56537919      -0.29802310      -0.35823039       0.34429833
Al      17.15000000      23.22500000      18.29477324       0.01467187      -0.25081499      -1.15755017
Al      19.17500000      21.20000000      18.29477324       0.04157615      -0.36131320      -1.21603301
Al      19.17500000      23.22500000      15.56537919      -0.10487994      -0.44637428       0.06737197
Al      21.20000000       5.00000000       5.00000000      -0.45504074      -0.06766634      -0.46489463
Al      21.20000000       7.02500000       7.02500000      -0.41417516       0.41417516       1.98279198
Al      23.22500000       5.00000000       7.02500000      -0.64234391       0.64234391       1.19264932
Al      23.22500000       7.02500000       5.00000000       0.06766634       0.45504074      -0.46489463
Al      20.76037751       5.42591903       9.83600215      -0.01455788       0.01116061       0.00176188
Al      20.30599545       7.91900455      11.79626372      -0.02593499       0.02593499      -0.02590582
Al      22.15680314       6.06819686      12.81538267      -0.00840338       0.00840338      -0.00517790
Al      22.79908097       7.46462249       9.83600215      -0.01116061       0.01455788       0.00176188
Al      21.20000000       5.00000000      15.56537919      -0.51232285       0.29343168       0.61901746
Al      21.20000000       7.02500000      18.29477324      -0.34980209       0.34980209      -1.23679954
Al      23.22500000       5.00000000      18.29477324      -0.88325724       0.88325724      -1.03267982
Al      23.22500000       7.02500000      15.56537919      -0.29343168       0.51232285       0.61901746
Al      21.20000000       9.05000000       5.00000000      -0.34797995      -0.02855750      -0.88293060
Al      21.20000000      11.07500000       7.02500000      -0.27350303      -0.14201408       0.81073540
Al      23.22500000       9.05000000       7.02500000       0.09951567       0.09574298       1.72563020
Al      23.22500000      11.07500000       5.00000000       0.15280095      -0.01233938      -0.53558651
Al      20.83139765       9.40257026       9.32556395      -0.02681394       0.02206197      -0.02674554
Al      21.12329327      10.85468892      12.28706314      -0.01725553       0.00782199      -0.03436050
Al      22.94759311       8.87491470      12.99663676      -0.01928200       0.01531709      -0.00210115
Al      23.28137594      10.56134845      10.08977325      -0.02309086       0.01514334      -0.00478798
Al      21.20000000       9.05000000      15.56537919      -0.59195932      -0.05764415      -0.03151817
Al      21.20000000      11.07500000      18.29477324      -0.36077885      -0.01111762      -1.19934467
Al      23.22500000       9.05000000      18.29477324      -0.25024192      -0.03566366      -1.18768044
Al      23.22500000      11.07500000      15.56537919      -0.40089254      -0.02782747      -0.02913081
Al      21.20000000      13.10000000       5.00000000      -0.32620172      -0.01110355      -0.90880059
Al      21.20000000      15.12500000       7.02500000      -0.62440185      -0.01410826       2.01469602
Al      23.22500000      13.10000000       7.02500000       0.33679593      -0.05229328       1.48301498
Al      23.22500000      15.12500000       5.00000000       0.15688516       0.00271186      -0.52381094
Al      21.40139669      12.58449004       9.39316442      -0.04121350       0.02129497      -0.03702730
Al      20.40617325      15.70338177      13.04291828      -0.01062300       0.00085584       0.01534656
Al      22.26987160      13.56539420      12.45553661      -0.01071938       0.00379696      -0.02539109
Al      22.73455361      15.19355261       9.64598973      -0.01236643      -0.01485701      -0.01121690
Al      21.20000000      13.10000000      15.56537919      -0.31384450       0.04927088       0.30544366
Al      21.20000000      15.12500000      18.29477324      -0.35983156       0.00130377      -1.21418238
Al      23.22500000      13.10000000      18.29477324      -0.25794633      -0.00329828      -1.14856197
Al      23.22500000      15.12500000      15.56537919      -0.49589592       0.12557094      -0.08402532
Al      21.20000000      17.15000000       5.00000000      -0.33097162       0.01134193      -0.93876370
Al      21.20000000      19.17500000       7.02500000      -0.58211073       0.06330628       2.07033050
Al      23.22500000      17.15000000       7.02500000       0.07693535      -0.16709345       1.40383313
Al      23.22500000      19.17500000       5.00000000       0.16410569       0.02771528      -0.50019431
Al      20.59023847      17.04374645       9.83515244      -0.02409866      -0.02713149      -0.03501478
Al      20.92840511      18.81350309      13.50444666      -0.00375782      -0.02352792       0.01633215
Al      22.77411450      17.08974090      12.24469672      -0.02720308      -0.01906630      -0.03581660
Al      22.86025162      18.83338768       9.55301263      -0.00409960      -0.01949887      -0.01971333
Al      21.20000000      17.15000000      15.56537919      -0.11901665      -0.75172804       1.63693889