299
Lattice="28.224999999999998 0.0 0.0 0.0 28.224999999999998 0.0 0.0 0.0 20.125" Properties=species:S:1:pos:R:3:forces:R:3 energy=-16469.06714321869 pbc="T T T"
Al       5.00000000       5.00000000       5.00000000       0.32122143       0.32042694       0.32852616
Al       5.00000000       7.02500000       7.02500000      -0.49579014       0.23685434       0.40404418
Al       7.02500000       5.00000000       7.02500000       0.23327893      -0.49228442       0.40450154
Al       7.02500000       7.02500000       5.00000000       0.33088564       0.33001280      -0.57478929
Al       4.97635826       4.97716806       9.06635066      -0.01428360      -0.01372488      -0.01604567
Al       4.87569381       7.05372698      11.07778744       0.02509819      -0.01166976       0.01874170
Al       7.05107185       4.87284429      11.07760959      -0.01494057       0.01145359       0.01988376
Al       7.02682470       7.02815850       9.08543198       0.02047061       0.01679225      -0.03386724
Al       5.00000000       5.00000000      13.10000000      -0.04797251      -0.04408917      -0.54767883
Al       5.00000000       7.02500000      15.12500000      -0.10350041       0.45742553       0.07667826
Al       7.02500000       5.00000000      15.12500000       0.45909761      -0.10410132       0.07521826
Al       7.02500000       7.02500000      13.10000000       0.15457810       0.16165501      -0.69643632
Al       5.00000000       9.05000000       5.00000000      -0.20658896      -0.03095330      -0.16533482
Al       5.00000000      11.07500000       7.02500000      -0.60471869       0.00262272       0.24253366
Al       7.02500000       9.05000000       7.02500000       0.09781114      -0.04511754       0.56717643
Al       7.02500000      11.07500000       5.00000000       0.34010082      -0.01313900      -0.62594226
Al       4.82263207       9.05009870       9.02608684       0.01267393      -0.01722097       0.00844460
Al       4.80883759      11.06607754      11.08790989      -0.01605939       0.00608418       0.00499757
Al       7.00059057       9.06477492      11.05561475       0.03117936      -0.00612861       0.02145220
Al       6.98111414      11.08006334       9.06859641       0.02183881      -0.00596054      -0.00713839
Al       5.00000000       9.05000000      13.10000000      -0.58514865      -0.01519132      -0.23055665
Al       5.00000000      11.07500000      15.12500000      -0.20850347      -0.01243593       0.16808727
Al       7.02500000       9.05000000      15.12500000       0.34214526      -0.03150035       0.62740068
Al       7.02500000      11.07500000      13.10000000       0.08996385       0.00731032      -0.54345114
Al       5.00000000      13.10000000       5.00000000      -0.21380953      -0.00375619      -0.16526629
Al       5.00000000      15.12500000       7.02500000      -0.62442918       0.00923303       0.26284890
Al       7.02500000      13.10000000       7.02500000       0.09428087       0.00046551       0.57346729
Al       7.02500000      15.12500000       5.00000000       0.34002804       0.00557037      -0.62351811
Al       4.81086038      13.09648149       9.03558484      -0.03392338       0.00651057      -0.01303745
Al       4.81372455      15.12646301      11.08804841      -0.03451026      -0.00124290       0.00775556
Al       6.96454937      13.09428549      11.05234248       0.01287795       0.01090479       0.02028791
Al       6.96754091      15.12634437       9.06727952       0.00556113      -0.00089119      -0.00840315
Al       5.00000000      13.10000000      13.10000000      -0.61871718      -0.01204522      -0.26569124
Al       5.00000000      15.12500000      15.12500000      -0.20974040       0.00343400       0.16635399
Al       7.02500000      13.10000000      15.12500000       0.34788383      -0.00352886       0.62339942
Al       7.02500000      15.12500000      13.10000000       0.02232213      -0.00273037      -0.50368281
Al       5.00000000      17.15000000       5.00000000      -0.21164814       0.01266022      -0.16644968
Al       5.00000000      19.17500000       7.02500000      -0.58591749       0.01651965       0.23699164
Al       7.02500000      17.15000000       7.02500000       0.09610196      -0.00097852       0.56061149
Al       7.02500000      19.17500000       5.00000000       0.33815021       0.03295789      -0.62630868
Al       4.80925158      17.15754431       9.03571163      -0.01869104      -0.00006830      -0.00724765
Al       4.81715922      19.17747682      11.09863247       0.01041567       0.02055668      -0.01031576
Al       6.96701134      17.15411174      11.05458808       0.03023776       0.00407220       0.01026484
Al       7.00013021      19.16320523       9.06987214       0.02568702       0.01034499      -0.01879963
Al       5.00000000      17.15000000      13.10000000      -0.62018932      -0.00531142      -0.23225028
Al       5.00000000      19.17500000      15.12500000      -0.20484385       0.03036260       0.16493974
Al       7.02500000      17.15000000      15.12500000       0.34649948       0.01025301       0.62451249
Al       7.02500000      19.17500000      13.10000000       0.11615910       0.04898805      -0.57789661
Al       5.00000000      21.20000000       5.00000000      -0.10523154      -0.45726814      -0.07614117
Al       5.00000000      23.22500000       7.02500000      -0.04599452       0.04599452       0.55218977
Al       7.02500000      21.20000000       7.02500000       0.16319101      -0.16319101       0.70280348
Al       7.02500000      23.22500000       5.00000000       0.45726814       0.10523154      -0.07614117
Al       4.87659905      21.17175127       9.04782222       0.02649652       0.01232540      -0.01945473
Al       4.97809665      23.24690335      11.05902268      -0.00577601       0.00577601       0.01280815
Al       7.03488804      21.19011196      11.03964898       0.01374991      -0.01374991       0.03822398
Al       7.05324873      23.34840095       9.04782222      -0.01232540      -0.02649652      -0.01945473
Al       5.00000000      21.20000000      13.10000000      -0.48287051      -0.23663137      -0.40884153
Al       5.00000000      23.22500000      15.12500000       0.32083087      -0.32083087      -0.32832786
Al       7.02500000      21.20000000      15.12500000       0.33271458      -0.33271458       0.57414326
Al       7.02500000      23.22500000      13.10000000       0.23663137       0.48287051      -0.40884153
Al       9.05000000       5.00000000       5.00000000      -0.02993994      -0.20659612      -0.16388286
Al       9.05000000       7.02500000       7.02500000      -0.05807960       0.09758576       0.56399758
Al      11.07500000       5.00000000       7.02500000       0.00451877      -0.62473862       0.22825290
Al      11.07500000       7.02500000       5.00000000      -0.01271005       0.33909461      -0.62554157
Al       9.04823490       4.81950397       9.02529387      -0.02279565      -0.00202661       0.01052238
Al       9.05315018       6.98834321      11.05471141       0.00081784       0.03912834       0.02070985
Al      11.06815692       4.81124341      11.08791777       0.00225958      -0.01896495       0.00854668
Al      11.07239892       6.96987501       9.06630369      -0.00497865       0.03098649       0.00250443
Al       9.05000000       5.00000000      13.10000000      -0.01393324      -0.60071681      -0.22469208
Al       9.05000000       7.02500000      15.12500000      -0.02993255       0.33995690       0.62678319
Al      11.07500000       5.00000000      15.12500000      -0.01074740      -0.20752729       0.16657945
Al      11.07500000       7.02500000      13.10000000       0.00347020       0.05527304      -0.52241717
Al       9.05000000       9.05000000       5.00000000      -0.02972344      -0.03084571      -0.68913736
Al       9.05000000      11.07500000       7.02500000      -0.07444106       0.03100125       0.42198856
Al      11.07500000       9.05000000       7.02500000      -0.01035289      -0.07420514       0.40736457
Al      11.07500000      11.07500000       5.00000000      -0.01114495      -0.01239309      -0.67986081
Al       9.05457886       9.05728107       9.05698058       0.00378706      -0.00052551      -0.00719600
Al       9.06036351      11.10281173      11.07354008      -0.00596315      -0.01955663      -0.00028561
Al      11.07439917       9.03035684      11.06943479       0.00548598       0.00754831       0.01101446
Al      11.09025580      11.09396389       9.05882504      -0.01725993      -0.01713345       0.01558784
Al       9.05000000       9.05000000      13.10000000      -0.08301241      -0.06327856      -0.45047418
Al       9.05000000      11.07500000      15.12500000      -0.02249042      -0.00911015       0.68338946
Al      11.07500000       9.05000000      15.12500000      -0.00710940      -0.02374140       0.68168086
Al      11.07500000      11.07500000      13.10000000      -0.00165050       0.01670783      -0.34381116
Al       9.05000000      13.10000000       5.00000000      -0.02851057      -0.00570923      -0.68262760
Al       9.05000000      15.12500000       7.02500000      -0.01005448      -0.00218496       0.47203658
Al      11.07500000      13.10000000       7.02500000       0.03221503       0.05708001       0.35753874
Al      11.07500000      15.12500000       5.00000000      -0.00759514       0.00485184      -0.67317026
Al       9.04880397      13.11334176       9.06227387      -0.02875770      -0.00259418      -0.01326486
Al       9.00852235      15.12484518      11.07865802      -0.00163009      -0.01033706      -0.01057280
Al      11.14688845      13.17311904      11.09640743       0.00181079       0.02073579      -0.03471175
Al      11.11779157      15.12376630       9.08501496      -0.00193810      -0.00777095       0.00699617
Al       9.05000000      13.10000000      13.10000000      -0.07388333       0.01842871      -0.40011051
Al       9.05000000      15.12500000      15.12500000      -0.01797269       0.00366189       0.67371728
Al      11.07500000      13.10000000      15.12500000      -0.01316969      -0.01081934       0.68957712
Al      11.07500000      15.12500000      13.10000000       0.37962759      -0.00346676      -0.43646390
Al       9.05000000      17.15000000       5.00000000      -0.03001764       0.01309512      -0.68412378
Al       9.05000000      19.17500000       7.02500000      -0.05303369       0.05303369       0.47750040
Al      11.07500000      17.15000000       7.02500000       0.03646951      -0.03646951       0.36935932
Al      11.07500000      19.17500000       5.00000000      -0.01309512       0.03001764      -0.68412378
Al       9.05356229      17.13284591       9.06191549      -0.01126582       0.02065382      -0.00708646
Al       9.07312080      19.15187920      11.07090416      -0.01224664       0.01224664       0.00724299
Al      11.15038054      17.07461946      11.09639322       0.00755926      -0.00755926      -0.04557671
Al      11.09215409      19.17143771       9.06191549      -0.02065382       0.01126582      -0.00708646
Al       9.05000000      17.15000000      13.10000000      -0.06969375      -0.01080202      -0.40113130
Al       9.05000000      19.17500000      15.12500000      -0.02608563       0.02608563       0.68802614
Al      11.07500000      17.15000000      15.12500000      -0.01354292       0.01354292       0.69380690
Al      11.07500000      19.17500000      13.10000000       0.01080202       0.06969375      -0.40113130
Al       9.05000000      21.20000000       5.00000000      -0.03295789      -0.33815021      -0.62630868
Al       9.05000000      23.22500000       7.02500000      -0.01651965       0.58591749       0.23699164
Al      11.07500000      21.20000000       7.02500000       0.00097852      -0.09610196       0.56061149
Al      11.07500000      23.22500000       5.00000000      -0.01266022       0.21164814      -0.16644968
Al       9.06179477      21.22486979       9.06987214      -0.01034499      -0.02568702      -0.01879963
Al       9.04752318      23.40784078      11.09863247      -0.02055668      -0.01041567      -0.01031576
Al      11.07088826      21.25798866      11.05458808      -0.00407220      -0.03023776       0.01026484
Al      11.06745569      23.41574842       9.03571163       0.00006830       0.01869104      -0.00724765
Al       9.05000000      21.20000000      13.10000000      -0.04898805      -0.11615910      -0.57789661
Al       9.05000000      23.22500000      15.12500000      -0.03036260       0.20484385       0.16493974
Al      11.07500000      21.20000000      15.12500000      -0.01025301      -0.34649948       0.62451249
Al      11.07500000      23.22500000      13.10000000       0.00531142       0.62018932      -0.23225028
Al      13.10000000       5.00000000       5.00000000      -0.00372758      -0.21275615      -0.16536810
Al      13.10000000       7.02500000       7.02500000       0.00082677       0.04436974       0.52852972
Al      15.12500000       5.00000000       7.02500000       0.00941250      -0.62429480       0.26118467
Al      15.12500000       7.02500000       5.00000000       0.00499868       0.33994427      -0.62477792
Al      13.09812733       4.81336193       9.03610158       0.00243435      -0.03678865      -0.00886146
Al      13.09849993       6.97005319      11.05328762       0.00376376       0.00566629       0.02040389
Al      15.12758145       4.81283766      11.08746031      -0.00553164      -0.03114476       0.01719933
Al      15.12867070       6.96730910       9.06818309      -0.00767948       0.01271681      -0.00307230
Al      13.10000000       5.00000000      13.10000000      -0.00757264      -0.61162710      -0.27209736
Al      13.10000000       7.02500000      15.12500000      -0.00438153       0.34439688       0.62321155
Al      15.12500000       5.00000000      15.12500000       0.00334222      -0.20877999       0.16510191
Al      15.12500000       7.02500000      13.10000000       0.00113942       0.05325866      -0.53804746
Al      13.10000000       9.05000000       5.00000000      -0.00450453      -0.02868425      -0.68215887
Al      13.10000000      11.07500000       7.02500000      -0.00053451       0.08273361       0.40008520
Al      15.12500000       9.05000000       7.02500000      -0.00107573      -0.07929643       0.40628606
Al      15.12500000      11.07500000       5.00000000       0.00584029      -0.01240907      -0.67676544
Al      13.09994754       9.02847631       9.04962145       0.01005664      -0.01518583       0.01096900
Al      13.10120603      11.05116872      11.08145569       0.01248323      -0.01393151      -0.01472178
Al      15.12951807       9.02526520      11.06862736      -0.01886622      -0.00728329       0.02078327
Al      15.11099543      11.09119439       9.05858204       0.00095620      -0.02826218       0.00707130
Al      13.10000000       9.05000000      13.10000000       0.00433071      -0.15084828      -0.34655683
Al      13.10000000      11.07500000      15.12500000      -0.00349708      -0.00406318       0.66542536
Al      15.12500000       9.05000000      15.12500000       0.00219710      -0.02207620       0.67949303
Al      15.12500000      11.07500000      13.10000000      -0.01544862       0.01254228      -0.33349222
Al      13.10000000      13.10000000       5.00000000      -0.00472077      -0.00225449      -0.66874360
Al      13.10000000      15.12500000       7.02500000      -0.00327616       0.00327616       0.08193619
Al      15.12500000      13.10000000       7.02500000      -0.05431592       0.05431592       0.34346054
Al      15.12500000      15.12500000       5.00000000       0.00225449       0.00472077      -0.66874360
Al      13.10095963      13.14411032       9.08430037       0.00458346       0.01898114       0.01072407
Al      15.05237992      13.17262008      11.09614360      -0.01974546       0.01974546      -0.02188081
Al      15.08088968      15.12404037       9.08430037      -0.01898114      -0.00458346       0.01072407
Al      13.10000000      13.10000000      13.10000000      -0.00013538       0.39889003      -0.43264099
Al      13.10000000      15.12500000      15.12500000      -0.00365888       0.00365888       0.82603795
Al      15.12500000      13.10000000      15.12500000       0.01085167      -0.01085167       0.68478282
Al      15.12500000      15.12500000      13.10000000      -0.39889003       0.00013538      -0.43264099
Al      13.10000000      17.15000000       5.00000000      -0.00485184       0.00759514      -0.67317026
Al      13.10000000      19.17500000       7.02500000       0.00218496       0.01005448       0.47203658
Al      15.12500000      17.15000000       7.02500000      -0.05708001      -0.03221503       0.35753874
Al      15.12500000      19.17500000       5.00000000       0.00570923       0.02851057      -0.68262760
Al      13.10123370      17.10720843       9.08501496       0.00777095       0.00193810       0.00699617
Al      13.10015482      19.21647765      11.07865802       0.01033706       0.00163009      -0.01057280
Al      15.05188096      17.07811155      11.09640743      -0.02073579      -0.00181079      -0.03471175
Al      15.11165824      19.17619603       9.06227387       0.00259418       0.02875770      -0.01326486
Al      13.10000000      17.15000000      13.10000000       0.00346676      -0.37962759      -0.43646390
Al      13.10000000      19.17500000      15.12500000      -0.00366189       0.01797269       0.67371728
Al      15.12500000      17.15000000      15.12500000       0.01081934       0.01316969       0.68957712
Al      15.12500000      19.17500000      13.10000000      -0.01842871       0.07388333      -0.40011051
Al      13.10000000      21.20000000       5.00000000      -0.00557037      -0.34002804      -0.62351811
Al      13.10000000      23.22500000       7.02500000      -0.00923303       0.62442918       0.26284890
Al      15.12500000      21.20000000       7.02500000      -0.00046551      -0.09428087       0.57346729
Al      15.12500000      23.22500000       5.00000000       0.00375619       0.21380953      -0.16526629
Al      13.09865563      21.25745909       9.06727952       0.00089119      -0.00556113      -0.00840315
Al      13.09853699      23.41127545      11.08804841       0.00124290       0.03451026       0.00775556
Al      15.13071451      21.26045063      11.05234248      -0.01090479      -0.01287795       0.02028791
Al      15.12851851      23.41413962       9.03558484      -0.00651057       0.03392338      -0.01303745
Al      13.10000000      21.20000000      13.10000000       0.00273037      -0.02232213      -0.50368281
Al      13.10000000      23.22500000      15.12500000      -0.00343400       0.20974040       0.16635399
Al      15.12500000      21.20000000      15.12500000       0.00352886      -0.34788383       0.62339942
Al      15.12500000      23.22500000      13.10000000       0.01204522       0.61871718      -0.26569124
Al      17.15000000       5.00000000       5.00000000       0.01087539      -0.21071372      -0.16726983
Al      17.15000000       7.02500000       7.02500000      -0.00127098       0.06842824       0.52805320
Al      19.17500000       5.00000000       7.02500000       0.01572823      -0.59947510       0.22089841
Al      19.17500000       7.02500000       5.00000000       0.03146804       0.33849779      -0.62923684
Al      17.15803207       4.81071692       9.03528784      -0.00515918      -0.02773296      -0.00065319
Al      17.15389617       6.96952080      11.05495149      -0.00183284       0.03479033       0.01613728
Al      19.17731617       4.81917566      11.09810776       0.01827810       0.00376878      -0.00142950
Al      19.16858840       6.99343979       9.06804693      -0.00290584       0.03546647      -0.00708653
Al      17.15000000       5.00000000      13.10000000      -0.00288638      -0.61656539      -0.23455467
Al      17.15000000       7.02500000      15.12500000       0.01176359       0.34277808       0.62509642
Al      19.17500000       5.00000000      15.12500000       0.02893971      -0.20313543       0.16369753
Al      19.17500000       7.02500000      13.10000000       0.05404472       0.09880010      -0.56388999
Al      17.15000000       9.05000000       5.00000000       0.01112028      -0.02874550      -0.68626037
Al      17.15000000      11.07500000       7.02500000      -0.01812678       0.01812678       0.35902825
Al      19.17500000       9.05000000       7.02500000       0.07796773      -0.07796773       0.43553030
Al      19.17500000      11.07500000       5.00000000       0.02874550      -0.01112028      -0.68626037
Al      17.14064186       9.04473163       9.05382245       0.00329648       0.00068436       0.00848554
Al      17.12442173      11.10057827      11.07607937       0.01109278      -0.01109278      -0.00892903
Al      19.16753751       9.05746249      11.06794257      -0.00733379       0.00733379       0.02259388
Al      19.18026837      11.08435814       9.05382245      -0.00068436      -0.00329648       0.00848554
Al      17.15000000       9.05000000      13.10000000       0.00236350      -0.08448250      -0.39780795
Al      17.15000000      11.07500000      15.12500000       0.00684916      -0.00684916       0.67740832
Al      19.17500000       9.05000000      15.12500000       0.02775626      -0.02775626       0.68784831
Al      19.17500000      11.07500000      13.10000000       0.08448250      -0.00236350      -0.39780795
Al      17.15000000      13.10000000       5.00000000       0.01240907      -0.00584029      -0.67676544
Al      17.15000000      15.12500000       7.02500000      -0.08273361       0.00053451       0.40008520
Al      19.17500000      13.10000000       7.02500000       0.07929643       0.00107573       0.40628606
Al      19.17500000      15.12500000       5.00000000       0.02868425       0.00450453      -0.68215887
Al      17.13380561      13.11400457       9.05858204       0.02826218      -0.00095620       0.00707130
Al      17.17383128      15.12379397      11.08145569       0.01393151      -0.01248323      -0.01472178
Al      19.19973480      13.09548193      11.06862736       0.00728329       0.01886622       0.02078327
Al      19.19652369      15.12505246       9.04962145       0.01518583      -0.01005664       0.01096900
Al      17.15000000      13.10000000      13.10000000      -0.01254228       0.01544862      -0.33349222
Al      17.15000000      15.12500000      15.12500000       0.00406318       0.00349708       0.66542536
Al      19.17500000      13.10000000      15.12500000       0.02207620      -0.00219710       0.67949303
Al      19.17500000      15.12500000      13.10000000       0.15084828      -0.00433071      -0.34655683
Al      17.15000000      17.15000000       5.00000000       0.01239309       0.01114495      -0.67986081
Al      17.15000000      19.17500000       7.02500000      -0.03100125       0.07444106       0.42198856
Al      19.17500000      17.15000000       7.02500000       0.07420514       0.01035289       0.40736457
Al      19.17500000      19.17500000       5.00000000       0.03084571       0.02972344      -0.68913736
Al      17.13103611      17.13474420       9.05882504       0.01713345       0.01725993       0.01558784
Al      17.12218827      19.16463649      11.07354008       0.01955663       0.00596315      -0.00028561
Al      19.19464316      17.15060083      11.06943479      -0.00754831      -0.00548598       0.01101446
Al      19.16771893      19.17042114       9.05698058       0.00052551      -0.00378706      -0.00719600
Al      17.15000000      17.15000000      13.10000000      -0.01670783       0.00165050      -0.34381116
Al      17.15000000      19.17500000      15.12500000       0.00911015       0.02249042       0.68338946
Al      19.17500000      17.15000000      15.12500000       0.02374140       0.00710940       0.68168086
Al      19.17500000      19.17500000      13.10000000       0.06327856       0.08301241      -0.45047418
Al      17.15000000      21.20000000       5.00000000       0.01313900      -0.34010082      -0.62594226
Al      17.15000000      23.22500000       7.02500000      -0.00262272       0.60471869       0.24253366
Al      19.17500000      21.20000000       7.02500000       0.04511754      -0.09781114       0.56717643
Al      19.17500000      23.22500000       5.00000000       0.03095330       0.20658896      -0.16533482
Al      17.14493666      21.24388586       9.06859641       0.00596054      -0.02183881      -0.00713839
Al      17.15892246      23.41616241      11.08790989      -0.00608418       0.01605939       0.00499757
Al      19.16022508      21.22440943      11.05561475       0.00612861      -0.03117936       0.02145220
Al      19.17490130      23.40236793       9.02608684       0.01722097      -0.01267393       0.00844460
Al      17.15000000      21.20000000      13.10000000      -0.00731032      -0.08996385      -0.54345114
Al      17.15000000      23.22500000      15.12500000       0.01243593       0.20850347       0.16808727
Al      19.17500000      21.20000000      15.12500000       0.03150035      -0.34214526       0.62740068
Al      19.17500000      23.22500000      13.10000000       0.01519132       0.58514865      -0.23055665
Al      21.20000000       5.00000000       5.00000000      -0.45797860      -0.10616118      -0.07704540
Al      21.20000000       7.02500000       7.02500000      -0.15212348       0.15212348       0.68213027
Al      23.22500000       5.00000000       7.02500000       0.05041929      -0.05041929       0.54291577
Al      23.22500000       7.02500000       5.00000000       0.10616118       0.45797860      -0.07704540
Al      21.17322990       4.87436910       9.04608479       0.01494524       0.01217390      -0.01364215
Al      21.19736747       7.02763253      11.03894487      -0.02301427       0.02301427       0.04819729
Al      23.24803505       4.97696495      11.05796492       0.01440223      -0.01440223       0.02117303
Al      23.35063090       7.05177010       9.04608479      -0.01217390      -0.01494524      -0.01364215
Al      21.20000000       5.00000000      13.10000000      -0.23647271      -0.49001574      -0.40302897
Al      21.20000000       7.02500000      15.12500000      -0.33315754       0.33315754       0.57384201
Al      23.22500000       5.00000000      15.12500000      -0.32207261       0.32207261      -0.32861375
Al      23.22500000       7.02500000      13.10000000       0.49001574       0.23647271      -0.40302897
Al      21.20000000       9.05000000       5.00000000      -0.33849779      -0.03146804      -0.62923684
Al      21.20000000      11.07500000       7.02500000      -0.06842824       0.00127098       0.52805320
Al      23.22500000       9.05000000       7.02500000       0.59947510      -0.01572823       0.22089841
Al      23.22500000      11.07500000       5.00000000       0.21071372      -0.01087539      -0.16726983
Al      21.23156021       9.05641160       9.06804693      -0.03546647       0.00290584      -0.00708653
Al      21.25547920      11.07110383      11.05495149      -0.03479033       0.00183284       0.01613728
Al      23.40582434       9.04768383      11.09810776      -0.00376878      -0.01827810      -0.00142950
Al      23.41428308      11.06696793       9.03528784       0.02773296       0.00515918      -0.00065319
Al      21.20000000       9.05000000      13.10000000      -0.09880010      -0.05404472      -0.56388999
Al      21.20000000      11.07500000      15.12500000      -0.34277808      -0.01176359       0.62509642
Al      23.22500000       9.05000000      15.12500000       0.20313543      -0.02893971       0.16369753
Al      23.22500000      11.07500000      13.10000000       0.61656539       0.00288638      -0.23455467
Al      21.20000000      13.10000000       5.00000000      -0.33994427      -0.00499868      -0.62477792
Al      21.20000000      15.12500000       7.02500000      -0.04436974      -0.00082677       0.52852972
Al      23.22500000      13.10000000       7.02500000       0.62429480      -0.00941250       0.26118467
Al      23.22500000      15.12500000       5.00000000       0.21275615       0.00372758      -0.16536810
Al      21.25769090      13.09632930       9.06818309      -0.01271681       0.00767948      -0.00307230
Al      21.25494681      15.12650007      11.05328762      -0.00566629      -0.00376376       0.02040389
Al      23.41216234      13.09741855      11.08746031       0.03114476       0.00553164       0.01719933
Al      23.41163807      15.12687267       9.03610158       0.03678865      -0.00243435      -0.00886146
Al      21.20000000      13.10000000      13.10000000      -0.05325866      -0.00113942      -0.53804746
Al      21.20000000      15.12500000      15.12500000      -0.34439688       0.00438153       0.62321155
Al      23.22500000      13.10000000      15.12500000       0.20877999      -0.00334222       0.16510191
Al      23.22500000      15.12500000      13.10000000       0.61162710       0.00757264      -0.27209736
Al      21.20000000      17.15000000       5.00000000      -0.33909461       0.01271005      -0.62554157
Al      21.20000000      19.17500000       7.02500000      -0.09758576       0.05807960       0.56399758
Al      23.22500000      17.15000000       7.02500000       0.62473862      -0.00451877       0.22825290
Al      23.22500000      19.17500000       5.00000000       0.20659612       0.02993994      -0.16388286
Al      21.25512499      17.15260108       9.06630369      -0.03098649       0.00497865       0.00250443
Al      21.23665679      19.17184982      11.05471141      -0.03912834      -0.00081784       0.02070985
Al      23.41375659      17.15684308      11.08791777       0.01896495      -0.00225958       0.00854668
Al      23.40549603      19.17676510       9.02529387       0.00202661       0.02279565       0.01052238
Al      21.20000000      17.15000000      13.10000000      -0.05527304      -0.00347020      -0.52241717