299
Lattice="28.224999999999998 0.0 0.0 0.0 28.224999999999998 0.0 0.0 0.0 20.125" Properties=species:S:1:pos:R:3 energy=-16468.680219824608 pbc="T T T"
Al       5.00000000       5.00000000       5.00000000
Al       5.00000000       7.02500000       7.02500000
Al       7.02500000       5.00000000       7.02500000
Al       7.02500000       7.02500000       5.00000000
Al       4.97635826       4.97716806       9.09688917
Al       4.87569381       7.05372698      11.12844032
Al       7.05107185       4.87284429      11.12826068
Al       7.02682470       7.02815850       9.11616130
Al       5.00000000       5.00000000      13.10000000
Al       5.00000000       7.02500000      15.12500000
Al       7.02500000       5.00000000      15.12500000
Al       7.02500000       7.02500000      13.10000000
Al       5.00000000       9.05000000       5.00000000
Al       5.00000000      11.07500000       7.02500000
Al       7.02500000       9.05000000       7.02500000
Al       7.02500000      11.07500000       5.00000000
Al       4.82263207       9.05009870       9.05622271
Al       4.80883759      11.06607754      11.13866399
Al       7.00059057       9.06477492      11.10604590
Al       6.98111414      11.08006334       9.09915738
Al       5.00000000       9.05000000      13.10000000
Al       5.00000000      11.07500000      15.12500000
Al       7.02500000       9.05000000      15.12500000
Al       7.02500000      11.07500000      13.10000000
Al       5.00000000      13.10000000       5.00000000
Al       5.00000000      15.12500000       7.02500000
Al       7.02500000      13.10000000       7.02500000
Al       7.02500000      15.12500000       5.00000000
Al       4.81086038      13.09648149       9.06581568
Al       4.81372455      15.12646301      11.13880390
Al       6.96454937      13.09428549      11.10274091
Al       6.96754091      15.12634437       9.09782731
Al       5.00000000      13.10000000      13.10000000
Al       5.00000000      15.12500000      15.12500000
Al       7.02500000      13.10000000      15.12500000
Al       7.02500000      15.12500000      13.10000000
Al       5.00000000      17.15000000       5.00000000
Al       5.00000000      19.17500000       7.02500000
Al       7.02500000      17.15000000       7.02500000
Al       7.02500000      19.17500000       5.00000000
Al       4.80925158      17.15754431       9.06594375
Al       4.81715922      19.17747682      11.14949380
Al       6.96701134      17.15411174      11.10500896
Al       7.00013021      19.16320523       9.10044586
Al       5.00000000      17.15000000      13.10000000
Al       5.00000000      19.17500000      15.12500000
Al       7.02500000      17.15000000      15.12500000
Al       7.02500000      19.17500000      13.10000000
Al       5.00000000      21.20000000       5.00000000
Al       5.00000000      23.22500000       7.02500000
Al       7.02500000      21.20000000       7.02500000
Al       7.02500000      23.22500000       5.00000000
Al       4.87659905      21.17175127       9.07817544
Al       4.97809665      23.24690335      11.10948790
Al       7.03488804      21.19011196      11.08992047
Al       7.05324873      23.34840095       9.07817544
Al       5.00000000      21.20000000      13.10000000
Al       5.00000000      23.22500000      15.12500000
Al       7.02500000      21.20000000      15.12500000
Al       7.02500000      23.22500000      13.10000000
Al       9.05000000       5.00000000       5.00000000
Al       9.05000000       7.02500000       7.02500000
Al      11.07500000       5.00000000       7.02500000
Al      11.07500000       7.02500000       5.00000000
Al       9.04823490       4.81950397       9.05542181
Al       9.05315018       6.98834321      11.10513352
Al      11.06815692       4.81124341      11.13867194
Al      11.07239892       6.96987501       9.09684172
Al       9.05000000       5.00000000      13.10000000
Al       9.05000000       7.02500000      15.12500000
Al      11.07500000       5.00000000      15.12500000
Al      11.07500000       7.02500000      13.10000000
Al       9.05000000       9.05000000       5.00000000
Al       9.05000000      11.07500000       7.02500000
Al      11.07500000       9.05000000       7.02500000
Al      11.07500000      11.07500000       5.00000000
Al       9.05457886       9.05728107       9.08742539
Al       9.06036351      11.10281173      11.12415048
Al      11.07439917       9.03035684      11.12000413
Al      11.09025580      11.09396389       9.08928829
Al       9.05000000       9.05000000      13.10000000
Al       9.05000000      11.07500000      15.12500000
Al      11.07500000       9.05000000      15.12500000
Al      11.07500000      11.07500000      13.10000000
Al       9.05000000      13.10000000       5.00000000
Al       9.05000000      15.12500000       7.02500000
Al      11.07500000      13.10000000       7.02500000
Al      11.07500000      15.12500000       5.00000000
Al       9.04880397      13.11334176       9.09277161
Al       9.00852235      15.12484518      11.12931960
Al      11.14688845      13.17311904      11.14724650
Al      11.11779157      15.12376630       9.11574011
Al       9.05000000      13.10000000      13.10000000
Al       9.05000000      15.12500000      15.12500000
Al      11.07500000      13.10000000      15.12500000
Al      11.07500000      15.12500000      13.10000000
Al       9.05000000      17.15000000       5.00000000
Al       9.05000000      19.17500000       7.02500000
Al      11.07500000      17.15000000       7.02500000
Al      11.07500000      19.17500000       5.00000000
Al       9.05356229      17.13284591       9.09240964
Al       9.07312080      19.15187920      11.12148820
Al      11.15038054      17.07461946      11.14723215
Al      11.09215409      19.17143771       9.09240964
Al       9.05000000      17.15000000      13.10000000
Al       9.05000000      19.17500000      15.12500000
Al      11.07500000      17.15000000      15.12500000
Al      11.07500000      19.17500000      13.10000000
Al       9.05000000      21.20000000       5.00000000
Al       9.05000000      23.22500000       7.02500000
Al      11.07500000      21.20000000       7.02500000
Al      11.07500000      23.22500000       5.00000000
Al       9.06179477      21.22486979       9.10044586
Al       9.04752318      23.40784078      11.14949380
Al      11.07088826      21.25798866      11.10500896
Al      11.06745569      23.41574842       9.06594375
Al       9.05000000      21.20000000      13.10000000
Al       9.05000000      23.22500000      15.12500000
Al      11.07500000      21.20000000      15.12500000
Al      11.07500000      23.22500000      13.10000000
Al      13.10000000       5.00000000       5.00000000
Al      13.10000000       7.02500000       7.02500000
Al      15.12500000       5.00000000       7.02500000
Al      15.12500000       7.02500000       5.00000000
Al      13.09812733       4.81336193       9.06633760
Al      13.09849993       6.97005319      11.10369549
Al      15.12758145       4.81283766      11.13820992
Al      15.12867070       6.96730910       9.09873992
Al      13.10000000       5.00000000      13.10000000
Al      13.10000000       7.02500000      15.12500000
Al      15.12500000       5.00000000      15.12500000
Al      15.12500000       7.02500000      13.10000000
Al      13.10000000       9.05000000       5.00000000
Al      13.10000000      11.07500000       7.02500000
Al      15.12500000       9.05000000       7.02500000
Al      15.12500000      11.07500000       5.00000000
Al      13.09994754       9.02847631       9.07999266
Al      13.10120603      11.05116872      11.13214524
Al      15.12951807       9.02526520      11.11918864
Al      15.11099543      11.09119439       9.08904286
Al      13.10000000       9.05000000      13.10000000
Al      13.10000000      11.07500000      15.12500000
Al      15.12500000       9.05000000      15.12500000
Al      15.12500000      11.07500000      13.10000000
Al      13.10000000      13.10000000       5.00000000
Al      13.10000000      15.12500000       7.02500000
Al      15.12500000      13.10000000       7.02500000
Al      15.12500000      15.12500000       5.00000000
Al      13.10095963      13.14411032       9.11501838
Al      15.05237992      13.17262008      11.14698003
Al      15.08088968      15.12404037       9.11501838
Al      13.10000000      13.10000000      13.10000000
Al      13.10000000      15.12500000      15.12500000
Al      15.12500000      13.10000000      15.12500000
Al      15.12500000      15.12500000      13.10000000
Al      13.10000000      17.15000000       5.00000000
Al      13.10000000      19.17500000       7.02500000
Al      15.12500000      17.15000000       7.02500000
Al      15.12500000      19.17500000       5.00000000
Al      13.10123370      17.10720843       9.11574011
Al      13.10015482      19.21647765      11.12931960
Al      15.05188096      17.07811155      11.14724650
Al      15.11165824      19.17619603       9.09277161
Al      13.10000000      17.15000000      13.10000000
Al      13.10000000      19.17500000      15.12500000
Al      15.12500000      17.15000000      15.12500000
Al      15.12500000      19.17500000      13.10000000
Al      13.10000000      21.20000000       5.00000000
Al      13.10000000      23.22500000       7.02500000
Al      15.12500000      21.20000000       7.02500000
Al      15.12500000      23.22500000       5.00000000
Al      13.09865563      21.25745909       9.09782731
Al      13.09853699      23.41127545      11.13880390
Al      15.13071451      21.26045063      11.10274091
Al      15.12851851      23.41413962       9.06581568
Al      13.10000000      21.20000000      13.10000000
Al      13.10000000      23.22500000      15.12500000
Al      15.12500000      21.20000000      15.12500000
Al      15.12500000      23.22500000      13.10000000
Al      17.15000000       5.00000000       5.00000000
Al      17.15000000       7.02500000       7.02500000
Al      19.17500000       5.00000000       7.02500000
Al      19.17500000       7.02500000       5.00000000
Al      17.15803207       4.81071692       9.06551572
Al      17.15389617       6.96952080      11.10537601
Al      19.17731617       4.81917566      11.14896384
Al      19.16858840       6.99343979       9.09860240
Al      17.15000000       5.00000000      13.10000000
Al      17.15000000       7.02500000      15.12500000
Al      19.17500000       5.00000000      15.12500000
Al      19.17500000       7.02500000      13.10000000
Al      17.15000000       9.05000000       5.00000000
Al      17.15000000      11.07500000       7.02500000
Al      19.17500000       9.05000000       7.02500000
Al      19.17500000      11.07500000       5.00000000
Al      17.14064186       9.04473163       9.08423567
Al      17.12442173      11.10057827      11.12671516
Al      19.16753751       9.05746249      11.11849699
Al      19.18026837      11.08435814       9.08423567
Al      17.15000000       9.05000000      13.10000000
Al      17.15000000      11.07500000      15.12500000
Al      19.17500000       9.05000000      15.12500000
Al      19.17500000      11.07500000      13.10000000
Al      17.15000000      13.10000000       5.00000000
Al      17.15000000      15.12500000       7.02500000
Al      19.17500000      13.10000000       7.02500000
Al      19.17500000      15.12500000       5.00000000
Al      17.13380561      13.11400457       9.08904286
Al      17.17383128      15.12379397      11.13214524
Al      19.19973480      13.09548193      11.11918864
Al      19.19652369      15.12505246       9.07999266
Al      17.15000000      13.10000000      13.10000000
Al      17.15000000      15.12500000      15.12500000
Al      19.17500000      13.10000000      15.12500000
Al      19.17500000      15.12500000      13.10000000
Al      17.15000000      17.15000000       5.00000000
Al      17.15000000      19.17500000       7.02500000
Al      19.17500000      17.15000000       7.02500000
Al      19.17500000      19.17500000       5.00000000
Al      17.13103611      17.13474420       9.08928829
Al      17.12218827      19.16463649      11.12415048
Al      19.19464316      17.15060083      11.12000413
Al      19.16771893      19.17042114       9.08742539
Al      17.15000000      17.15000000      13.10000000
Al      17.15000000      19.17500000      15.12500000
Al      19.17500000      17.15000000      15.12500000
Al      19.17500000      19.17500000      13.10000000
Al      17.15000000      21.20000000       5.00000000
Al      17.15000000      23.22500000       7.02500000
Al      19.17500000      21.20000000       7.02500000
Al      19.17500000      23.22500000       5.00000000
Al      17.14493666      21.24388586       9.09915738
Al      17.15892246      23.41616241      11.13866399
Al      19.16022508      21.22440943      11.10604590
Al      19.17490130      23.40236793       9.05622271
Al      17.15000000      21.20000000      13.10000000
Al      17.15000000      23.22500000      15.12500000
Al      19.17500000      21.20000000      15.12500000
Al      19.17500000      23.22500000      13.10000000
Al      21.20000000       5.00000000       5.00000000
Al      21.20000000       7.02500000       7.02500000
Al      23.22500000       5.00000000       7.02500000
Al      23.22500000       7.02500000       5.00000000
Al      21.17322990       4.87436910       9.07642064
Al      21.19736747       7.02763253      11.08920932
Al      23.24803505       4.97696495      11.10841957
Al      23.35063090       7.05177010       9.07642064
Al      21.20000000       5.00000000      13.10000000
Al      21.20000000       7.02500000      15.12500000
Al      23.22500000       5.00000000      15.12500000
Al      23.22500000       7.02500000      13.10000000
Al      21.20000000       9.05000000       5.00000000
Al      21.20000000      11.07500000       7.02500000
Al      23.22500000       9.05000000       7.02500000
Al      23.22500000      11.07500000       5.00000000
Al      21.23156021       9.05641160       9.09860240
Al      21.25547920      11.07110383      11.10537601
Al      23.40582434       9.04768383      11.14896384
Al      23.41428308      11.06696793       9.06551572
Al      21.20000000       9.05000000      13.10000000
Al      21.20000000      11.07500000      15.12500000
Al      23.22500000       9.05000000      15.12500000
Al      23.22500000      11.07500000      13.10000000
Al      21.20000000      13.10000000       5.00000000
Al      21.20000000      15.12500000       7.02500000
Al      23.22500000      13.10000000       7.02500000
Al      23.22500000      15.12500000       5.00000000
Al      21.25769090      13.09632930       9.09873992
Al      21.25494681      15.12650007      11.10369549
Al      23.41216234      13.09741855      11.13820992
Al      23.41163807      15.12687267       9.06633760
Al      21.20000000      13.10000000      13.10000000
Al      21.20000000      15.12500000      15.12500000
Al      23.22500000      13.10000000      15.12500000
Al      23.22500000      15.12500000      13.10000000
Al      21.20000000      17.15000000       5.00000000
Al      21.20000000      19.17500000       7.02500000
Al      23.22500000      17.15000000       7.02500000
Al      23.22500000      19.17500000       5.00000000
Al      21.25512499      17.15260108       9.09684172
Al      21.23665679      19.17184982      11.10513352
Al      23.41375659      17.15684308      11.13867194
Al      23.40549603      19.17676510       9.05542181
Al      21.20000000      17.15000000      13.10000000
Al      21.20000000      19.17500000      15.12500000
Al      23.22500000      17.15000000      15.12500000
Al      23.22500000      19.17500000      13.10000000
Al      21.20000000      21.20000000       5.00000000
Al      21.20000000      23.22500000       7.02500000
Al      23.22500000      21.20000000       7.02500000
Al      23.22500000      23.22500000       5.00000000
Al      21.19684150      21.19817530       9.11616130
Al      21.17127302      23.34930619      11.12844032
Al      23.35215571      21.17392815      11.12826068
Al      23.24783194      23.24864174       9.09688917
Al      21.20000000      21.20000000      13.10000000
Al      21.20000000      23.22500000      15.12500000
Al      23.22500000      21.20000000      15.12500000
Al      23.22500000      23.22500000      13.10000000
