299
Lattice="28.224999999999998 0.0 0.0 0.0 28.224999999999998 0.0 0.0 0.0 20.125" Properties=species:S:1:pos:R:3:forces:R:3 energy=-16469.04292369493 pbc="T T T"
Al       5.00000000       5.00000000       5.00000000       0.32730803       0.32717005       0.32178421
Al       5.00000000       7.02500000       7.02500000      -0.48779460       0.24682332       0.44150609
Al       7.02500000       5.00000000       7.02500000       0.24091775      -0.48518597       0.43936008
Al       7.02500000       7.02500000       5.00000000       0.32109224       0.32098583      -0.57700855
Al       4.98310932       4.98423402       9.08490162      -0.02002506      -0.01955851      -0.04578901
Al       4.87559474       7.05242292      11.09247212       0.00517539      -0.00171505      -0.01512090
Al       7.04902270       4.87032787      11.09266362       0.00091058       0.00357576      -0.01364037
Al       7.02819480       7.02904481       9.09630939       0.00251723      -0.00313278      -0.05727274
Al       5.00000000       5.00000000      13.10000000      -0.07386771      -0.06775467      -0.50967232
Al       5.00000000       7.02500000      15.12500000      -0.10418560       0.45993187       0.07264785
Al       7.02500000       5.00000000      15.12500000       0.46002143      -0.10456196       0.07183209
Al       7.02500000       7.02500000      13.10000000       0.14587079       0.15119244      -0.63120640
Al       5.00000000       9.05000000       5.00000000      -0.20486594      -0.03366902      -0.17136976
Al       5.00000000      11.07500000       7.02500000      -0.60123239      -0.00975865       0.30091690
Al       7.02500000       9.05000000       7.02500000       0.07629029      -0.04765286       0.58522352
Al       7.02500000      11.07500000       5.00000000       0.32281405      -0.01475410      -0.63002081
Al       4.82935988       9.04695746       9.04890577      -0.00638636      -0.00611330      -0.06492658
Al       4.79944300      11.06529140      11.10103504      -0.00821103       0.00039477      -0.01666645
Al       6.99979047       9.06336980      11.06665559      -0.00126432       0.00447464      -0.00425175
Al       6.97810625      11.07574993       9.08282253      -0.01316171       0.00634810      -0.05433258
Al       5.00000000       9.05000000      13.10000000      -0.60498123      -0.00653342      -0.18229633
Al       5.00000000      11.07500000      15.12500000      -0.20676943      -0.01168853       0.16112960
Al       7.02500000       9.05000000      15.12500000       0.33734732      -0.02946392       0.62858654
Al       7.02500000      11.07500000      13.10000000       0.05792310       0.00692367      -0.49000899
Al       5.00000000      13.10000000       5.00000000      -0.21079874      -0.00411427      -0.17163568
Al       5.00000000      15.12500000       7.02500000      -0.62379223       0.01466720       0.31032145
Al       7.02500000      13.10000000       7.02500000       0.05324762      -0.00317702       0.60255904
Al       7.02500000      15.12500000       5.00000000       0.32207330       0.00468730      -0.62953733
Al       4.80617282      13.09624843       9.05539322      -0.01624561       0.00042124      -0.06727236
Al       4.79964935      15.12740723      11.10189433      -0.01037953       0.00079587      -0.01551612
Al       6.96365556      13.09465775      11.06233209      -0.01984652       0.00205169      -0.00782714
Al       6.96257044      15.12772234       9.08137664      -0.01638074      -0.00017362      -0.05237567
Al       5.00000000      13.10000000      13.10000000      -0.63698602      -0.01431523      -0.21502287
Al       5.00000000      15.12500000      15.12500000      -0.20674268       0.00351924       0.16089636
Al       7.02500000      13.10000000      15.12500000       0.34112598      -0.00264658       0.62645956
Al       7.02500000      15.12500000      13.10000000      -0.00882351       0.00284291      -0.45811435
Al       5.00000000      17.15000000       5.00000000      -0.20952400       0.01509085      -0.17193261
Al       5.00000000      19.17500000       7.02500000      -0.58455921       0.02189378       0.28910316
Al       7.02500000      17.15000000       7.02500000       0.06241795       0.00458675       0.58775523
Al       7.02500000      19.17500000       5.00000000       0.32259436       0.03952203      -0.62976306
Al       4.80845780      17.16023231       9.05648101      -0.01551439       0.00147143      -0.06877751
Al       4.81297250      19.18029917      11.10909710      -0.00173028       0.00273958      -0.01935489
Al       6.96903984      17.15735936      11.06335722      -0.01894764      -0.00749825      -0.00394979
Al       6.99803907      19.16467290       9.08082673      -0.00437781       0.00716987      -0.05445690
Al       5.00000000      17.15000000      13.10000000      -0.63317862       0.00632057      -0.19229222
Al       5.00000000      19.17500000      15.12500000      -0.20536726       0.02822774       0.15963132
Al       7.02500000      17.15000000      15.12500000       0.34022841       0.00941606       0.62689374
Al       7.02500000      19.17500000      13.10000000       0.08920402       0.04018727      -0.50951900
Al       5.00000000      21.20000000       5.00000000      -0.09993422      -0.45452066      -0.08194780
Al       5.00000000      23.22500000       7.02500000      -0.02272117       0.02272117       0.56946580
Al       7.02500000      21.20000000       7.02500000       0.15619348      -0.15619348       0.70589267
Al       7.02500000      23.22500000       5.00000000       0.45452066       0.09993422      -0.08194780
Al       4.88613430      21.17340842       9.06712146      -0.00343218       0.01099805      -0.06148734
Al       4.97156465      23.25343535      11.08047427       0.00332662      -0.00332662      -0.01524645
Al       7.03323000      21.19177000      11.05415684       0.00027208      -0.00027208      -0.00549813
Al       7.05159158      23.33886570       9.06712146      -0.01099805       0.00343218      -0.06148734
Al       5.00000000      21.20000000      13.10000000      -0.51094462      -0.23101979      -0.36061207
Al       5.00000000      23.22500000      15.12500000       0.31972716      -0.31972716      -0.33989924
Al       7.02500000      21.20000000      15.12500000       0.33114299      -0.33114299       0.57529791
Al       7.02500000      23.22500000      13.10000000       0.23101979       0.51094462      -0.36061207
Al       9.05000000       5.00000000       5.00000000      -0.03362891      -0.20528311      -0.17034134
Al       9.05000000       7.02500000       7.02500000      -0.05760127       0.07433822       0.58510780
Al      11.07500000       5.00000000       7.02500000      -0.01054277      -0.61414835       0.29279705
Al      11.07500000       7.02500000       5.00000000      -0.01457847       0.32276088      -0.62870483
Al       9.04384594       4.82352150       9.04826861      -0.00374539      -0.00700517      -0.06565237
Al       9.05362511       6.99074894      11.06592115       0.00196684      -0.00650554      -0.00411216
Al      11.06609001       4.80122422      11.10127245      -0.00101996      -0.00802004      -0.01707810
Al      11.06869278       6.96976177       9.08150392       0.00533375      -0.01665363      -0.05588633
Al       9.05000000       5.00000000      13.10000000      -0.00961974      -0.61499973      -0.17609289
Al       9.05000000       7.02500000      15.12500000      -0.02947743       0.33722068       0.62763833
Al      11.07500000       5.00000000      15.12500000      -0.01181983      -0.20681087       0.16111504
Al      11.07500000       7.02500000      13.10000000      -0.00091588       0.02767023      -0.46882532
Al       9.05000000       9.05000000       5.00000000      -0.03990989      -0.03977211      -0.69112774
Al       9.05000000      11.07500000       7.02500000      -0.09474886       0.01693628       0.43875663
Al      11.07500000       9.05000000       7.02500000      -0.01630087      -0.09388688       0.42854688
Al      11.07500000      11.07500000       5.00000000      -0.01596784      -0.01569040      -0.69011015
Al       9.05450714       9.05641341       9.06450216      -0.00885850      -0.00687410      -0.04838874
Al       9.06046649      11.09755645      11.08091913      -0.00565175       0.00800801      -0.00071530
Al      11.07140718       9.03261046      11.07896238       0.00887814      -0.00306875      -0.00337342
Al      11.08420860      11.08906126       9.07399180       0.00624297       0.00487555      -0.06209953
Al       9.05000000       9.05000000      13.10000000      -0.08384862      -0.06346866      -0.36516683
Al       9.05000000      11.07500000      15.12500000      -0.02682100      -0.00856162       0.68869992
Al      11.07500000       9.05000000      15.12500000      -0.00903062      -0.02682930       0.68677076
Al      11.07500000      11.07500000      13.10000000      -0.01007563       0.01812224      -0.29200801
Al       9.05000000      13.10000000       5.00000000      -0.04106695      -0.00502781      -0.69241347
Al       9.05000000      15.12500000       7.02500000      -0.03208450       0.00440663       0.50223343
Al      11.07500000      13.10000000       7.02500000       0.01486846       0.04498460       0.39632298
Al      11.07500000      15.12500000       5.00000000      -0.01307305       0.00462402      -0.69009159
Al       9.04541886      13.11172153       9.07271782      -0.00810214      -0.00159031      -0.05389147
Al       9.01027411      15.12561195      11.08302723      -0.00785184      -0.00069505      -0.00148000
Al      11.13940458      13.17139882      11.09766068       0.00983072      -0.00005367       0.02369097
Al      11.11120975      15.12533272       9.10151969       0.01448318       0.00022120      -0.05268593
Al       9.05000000      13.10000000      13.10000000      -0.07968537       0.01279577      -0.34446148
Al       9.05000000      15.12500000      15.12500000      -0.02480925       0.00265771       0.68425133
Al      11.07500000      13.10000000      15.12500000      -0.01730987      -0.01183902       0.70358955
Al      11.07500000      15.12500000      13.10000000       0.38401566       0.00681110      -0.42497816
Al       9.05000000      17.15000000       5.00000000      -0.04128094       0.01630104      -0.69328718
Al       9.05000000      19.17500000       7.02500000      -0.06999576       0.06999576       0.48077562
Al      11.07500000      17.15000000       7.02500000       0.02229933      -0.02229933       0.39923889
Al      11.07500000      19.17500000       5.00000000      -0.01630104       0.04128094      -0.69328718
Al       9.05347207      17.13838653       9.07328055      -0.01232153      -0.00385349      -0.05872945
Al       9.07269235      19.15230765      11.08154647      -0.00348620       0.00348620      -0.00750078
Al      11.14397829      17.08102171      11.09664913       0.01027398      -0.01027398       0.02510852
Al      11.08661347      19.17152793       9.07328055       0.00385349       0.01232153      -0.05872945
Al       9.05000000      17.15000000      13.10000000      -0.06909583      -0.00578836      -0.34220097
Al       9.05000000      19.17500000      15.12500000      -0.02726650       0.02726650       0.69033551
Al      11.07500000      17.15000000      15.12500000      -0.01786737       0.01786737       0.70566760
Al      11.07500000      19.17500000      13.10000000       0.00578836       0.06909583      -0.34220097
Al       9.05000000      21.20000000       5.00000000      -0.03952203      -0.32259436      -0.62976306
Al       9.05000000      23.22500000       7.02500000      -0.02189378       0.58455921       0.28910316
Al      11.07500000      21.20000000       7.02500000      -0.00458675      -0.06241795       0.58775523
Al      11.07500000      23.22500000       5.00000000      -0.01509085       0.20952400      -0.17193261
Al       9.06032710      21.22696093       9.08082673      -0.00716987       0.00437781      -0.05445690
Al       9.04470083      23.41202750      11.10909710      -0.00273958       0.00173028      -0.01935489
Al      11.06764064      21.25596016      11.06335722       0.00749825       0.01894764      -0.00394979
Al      11.06476769      23.41654220       9.05648101      -0.00147143       0.01551439      -0.06877751
Al       9.05000000      21.20000000      13.10000000      -0.04018727      -0.08920402      -0.50951900
Al       9.05000000      23.22500000      15.12500000      -0.02822774       0.20536726       0.15963132
Al      11.07500000      21.20000000      15.12500000      -0.00941606      -0.34022841       0.62689374
Al      11.07500000      23.22500000      13.10000000      -0.00632057       0.63317862      -0.19229222
Al      13.10000000       5.00000000       5.00000000      -0.00459704      -0.21067751      -0.17169302
Al      13.10000000       7.02500000       7.02500000      -0.00451487       0.01147120       0.56600108
Al      15.12500000       5.00000000       7.02500000       0.01435245      -0.61890864       0.31439619
Al      15.12500000       7.02500000       5.00000000       0.00409540       0.32269876      -0.62853599
Al      13.09729064       4.80849848       9.05605775      -0.00030784      -0.01486942      -0.06701897
Al      13.09735957       6.96797558      11.06269756       0.00071594      -0.02104986      -0.00528765
Al      15.12777179       4.79923326      11.10228125      -0.00032904      -0.00802834      -0.01620091
Al      15.12907929       6.96400245       9.08254910      -0.00105973      -0.01731875      -0.05026426
Al      13.10000000       5.00000000      13.10000000      -0.01427439      -0.63224701      -0.21955042
Al      13.10000000       7.02500000      15.12500000      -0.00305466       0.34041132       0.62726318
Al      15.12500000       5.00000000      15.12500000       0.00336793      -0.20688255       0.16104609
Al      15.12500000       7.02500000      13.10000000       0.00385585       0.01931230      -0.48366926
Al      13.10000000       9.05000000       5.00000000      -0.00458941      -0.04114749      -0.68858871
Al      13.10000000      11.07500000       7.02500000      -0.00861809       0.06790178       0.44433886
Al      15.12500000       9.05000000       7.02500000       0.00399083      -0.10602320       0.43040840
Al      15.12500000      11.07500000       5.00000000       0.00503434      -0.01544484      -0.68798699
Al      13.09920300       9.02515711       9.06112823      -0.00036176      -0.00658067      -0.05096835
Al      13.10006094      11.04682777      11.08340300       0.00223572       0.00911402       0.00682934
Al      15.12854421       9.02499839      11.07926598      -0.00078575      -0.00071928      -0.00536162
Al      15.11264580      11.08416242       9.07255248      -0.00000925       0.00898444      -0.05569087
Al      13.10000000       9.05000000      13.10000000      -0.00232405      -0.15800774      -0.27652415
Al      13.10000000      11.07500000      15.12500000      -0.00250835      -0.00579123       0.67992336
Al      15.12500000       9.05000000      15.12500000       0.00231248      -0.02614823       0.68612855
Al      15.12500000      11.07500000      13.10000000      -0.00846803       0.00996388      -0.28529311
Al      13.10000000      13.10000000       5.00000000      -0.00444145      -0.00222840      -0.68716884
Al      13.10000000      15.12500000       7.02500000      -0.00968609       0.00968609       0.11140990
Al      15.12500000      13.10000000       7.02500000      -0.04357128       0.04357128       0.38906295
Al      15.12500000      15.12500000       5.00000000       0.00222840       0.00444145      -0.68716884
Al      13.09859253      13.14325592       9.10171109       0.00092003       0.00850743      -0.04807254
Al      15.05393936      13.17106064      11.09872441      -0.00063974       0.00063974       0.02161800
Al      15.08174408      15.12640747       9.10171109      -0.00850743      -0.00092003      -0.04807254
Al      13.10000000      13.10000000      13.10000000      -0.01295668       0.40183512      -0.41426833
Al      13.10000000      15.12500000      15.12500000      -0.00215725       0.00215725       0.84290458
Al      15.12500000      13.10000000      15.12500000       0.01149666      -0.01149666       0.70061910
Al      15.12500000      15.12500000      13.10000000      -0.40183512       0.01295668      -0.41426833
Al      13.10000000      17.15000000       5.00000000      -0.00462402       0.01307305      -0.69009159
Al      13.10000000      19.17500000       7.02500000      -0.00440663       0.03208450       0.50223343
Al      15.12500000      17.15000000       7.02500000      -0.04498460      -0.01486846       0.39632298
Al      15.12500000      19.17500000       5.00000000       0.00502781       0.04106695      -0.69241347
Al      13.09966728      17.11379025       9.10151969      -0.00022120      -0.01448318      -0.05268593
Al      13.09938805      19.21472589      11.08302723       0.00069505       0.00785184      -0.00148000
Al      15.05360118      17.08559542      11.09766068       0.00005367      -0.00983072       0.02369097
Al      15.11327847      19.17958114       9.07271782       0.00159031       0.00810214      -0.05389147
Al      13.10000000      17.15000000      13.10000000      -0.00681110      -0.38401566      -0.42497816
Al      13.10000000      19.17500000      15.12500000      -0.00265771       0.02480925       0.68425133
Al      15.12500000      17.15000000      15.12500000       0.01183902       0.01730987       0.70358955
Al      15.12500000      19.17500000      13.10000000      -0.01279577       0.07968537      -0.34446148
Al      13.10000000      21.20000000       5.00000000      -0.00468730      -0.32207330      -0.62953733
Al      13.10000000      23.22500000       7.02500000      -0.01466720       0.62379223       0.31032145
Al      15.12500000      21.20000000       7.02500000       0.00317702      -0.05324762       0.60255904
Al      15.12500000      23.22500000       5.00000000       0.00411427       0.21079874      -0.17163568
Al      13.09727766      21.26242956       9.08137664       0.00017362       0.01638074      -0.05237567
Al      13.09759277      23.42535065      11.10189433      -0.00079587       0.01037953      -0.01551612
Al      15.13034225      21.26134444      11.06233209      -0.00205169       0.01984652      -0.00782714
Al      15.12875157      23.41882718       9.05539322      -0.00042124       0.01624561      -0.06727236
Al      13.10000000      21.20000000      13.10000000      -0.00284291       0.00882351      -0.45811435
Al      13.10000000      23.22500000      15.12500000      -0.00351924       0.20674268       0.16089636
Al      15.12500000      21.20000000      15.12500000       0.00264658      -0.34112598       0.62645956
Al      15.12500000      23.22500000      13.10000000       0.01431523       0.63698602      -0.21502287
Al      17.15000000       5.00000000       5.00000000       0.01493197      -0.20978317      -0.17225219
Al      17.15000000       7.02500000       7.02500000       0.00456624       0.03965662       0.56594036
Al      19.17500000       5.00000000       7.02500000       0.02241504      -0.59195589       0.28300257
Al      19.17500000       7.02500000       5.00000000       0.03926414       0.32248630      -0.62979406
Al      17.16023438       4.80902593       9.05657986      -0.00097613      -0.01307809      -0.06731747
Al      17.15612869       6.97200936      11.06345247      -0.00767516      -0.01984999      -0.00221106
Al      19.18030728       4.81390318      11.10896980       0.00130748       0.00033455      -0.01891893
Al      19.16805368       6.99377139       9.07975671       0.00702601      -0.00779511      -0.05391387
Al      17.15000000       5.00000000      13.10000000       0.00774026      -0.62964106      -0.19511236
Al      17.15000000       7.02500000      15.12500000       0.00949029       0.33966357       0.62796832
Al      19.17500000       5.00000000      15.12500000       0.02824829      -0.20533627       0.16020002
Al      19.17500000       7.02500000      13.10000000       0.04485969       0.07363499      -0.49911399
Al      17.15000000       9.05000000       5.00000000       0.01537910      -0.04060049      -0.68997551
Al      17.15000000      11.07500000       7.02500000      -0.00224807       0.00224807       0.38652691
Al      19.17500000       9.05000000       7.02500000       0.09069612      -0.09069612       0.45226694
Al      19.17500000      11.07500000       5.00000000       0.04060049      -0.01537910      -0.68997551
Al      17.14528451       9.04343042       9.06478046      -0.00609886      -0.00801293      -0.05138762
Al      17.12958795      11.09541205      11.08053253      -0.00864072       0.00864072       0.00709221
Al      19.16763335       9.05736665      11.07985275       0.00012800      -0.00012800      -0.00790719
Al      19.18156958      11.07971549       9.06478046       0.00801293       0.00609886      -0.05138762
Al      17.15000000       9.05000000      13.10000000       0.00438379      -0.08761484      -0.32232460
Al      17.15000000      11.07500000      15.12500000       0.00772214      -0.00772214       0.68570216
Al      19.17500000       9.05000000      15.12500000       0.02772719      -0.02772719       0.69041514
Al      19.17500000      11.07500000      13.10000000       0.08761484      -0.00438379      -0.32232460
Al      17.15000000      13.10000000       5.00000000       0.01544484      -0.00503434      -0.68798699
Al      17.15000000      15.12500000       7.02500000      -0.06790178       0.00861809       0.44433886
Al      19.17500000      13.10000000       7.02500000       0.10602320      -0.00399083       0.43040840
Al      19.17500000      15.12500000       5.00000000       0.04114749       0.00458941      -0.68858871
Al      17.14083758      13.11235420       9.07255248      -0.00898444       0.00000925      -0.05569087
Al      17.17817223      15.12493906      11.08340300      -0.00911402      -0.00223572       0.00682934
Al      19.20000161      13.09645579      11.07926598       0.00071928       0.00078575      -0.00536162
Al      19.19984289      15.12579700       9.06112823       0.00658067       0.00036176      -0.05096835
Al      17.15000000      13.10000000      13.10000000      -0.00996388       0.00846803      -0.28529311
Al      17.15000000      15.12500000      15.12500000       0.00579123       0.00250835       0.67992336
Al      19.17500000      13.10000000      15.12500000       0.02614823      -0.00231248       0.68612855
Al      19.17500000      15.12500000      13.10000000       0.15800774       0.00232405      -0.27652415
Al      17.15000000      17.15000000       5.00000000       0.01569040       0.01596784      -0.69011015
Al      17.15000000      19.17500000       7.02500000      -0.01693628       0.09474886       0.43875663
Al      19.17500000      17.15000000       7.02500000       0.09388688       0.01630087       0.42854688
Al      19.17500000      19.17500000       5.00000000       0.03977211       0.03990989      -0.69112774
Al      17.13593874      17.14079140       9.07399180      -0.00487555      -0.00624297      -0.06209953
Al      17.12744355      19.16453351      11.08091913      -0.00800801       0.00565175      -0.00071530
Al      19.19238954      17.15359282      11.07896238       0.00306875      -0.00887814      -0.00337342
Al      19.16858659      19.17049286       9.06450216       0.00687410       0.00885850      -0.04838874
Al      17.15000000      17.15000000      13.10000000      -0.01812224       0.01007563      -0.29200801
Al      17.15000000      19.17500000      15.12500000       0.00856162       0.02682100       0.68869992
Al      19.17500000      17.15000000      15.12500000       0.02682930       0.00903062       0.68677076
Al      19.17500000      19.17500000      13.10000000       0.06346866       0.08384862      -0.36516683
Al      17.15000000      21.20000000       5.00000000       0.01475410      -0.32281405      -0.63002081
Al      17.15000000      23.22500000       7.02500000       0.00975865       0.60123239       0.30091690
Al      19.17500000      21.20000000       7.02500000       0.04765286      -0.07629029       0.58522352
Al      19.17500000      23.22500000       5.00000000       0.03366902       0.20486594      -0.17136976
Al      17.14925007      21.24689375       9.08282253      -0.00634810       0.01316171      -0.05433258
Al      17.15970860      23.42555700      11.10103504      -0.00039477       0.00821103      -0.01666645
Al      19.16163020      21.22520953      11.06665559      -0.00447464       0.00126432      -0.00425175
Al      19.17804254      23.39564012       9.04890577       0.00611330       0.00638636      -0.06492658
Al      17.15000000      21.20000000      13.10000000      -0.00692367      -0.05792310      -0.49000899
Al      17.15000000      23.22500000      15.12500000       0.01168853       0.20676943       0.16112960
Al      19.17500000      21.20000000      15.12500000       0.02946392      -0.33734732       0.62858654
Al      19.17500000      23.22500000      13.10000000       0.00653342       0.60498123      -0.18229633
Al      21.20000000       5.00000000       5.00000000      -0.45443737      -0.10049882      -0.08160944
Al      21.20000000       7.02500000       7.02500000      -0.14770131       0.14770131       0.70243207
Al      23.22500000       5.00000000       7.02500000       0.02556665      -0.02556665       0.56271725
Al      23.22500000       7.02500000       5.00000000       0.10049882       0.45443737      -0.08160944
Al      21.17527457       4.88221928       9.06616797       0.01092331      -0.00108931      -0.05907355
Al      21.19706661       7.02793339      11.05354565       0.00378502      -0.00378502      -0.00779467
Al      23.25604046       4.96895954      11.08054479      -0.00421935       0.00421935      -0.01231315
Al      23.34278072       7.04972543       9.06616797       0.00108931      -0.01092331      -0.05907355
Al      21.20000000       5.00000000      13.10000000      -0.22796319      -0.51619746      -0.35755991
Al      21.20000000       7.02500000      15.12500000      -0.33087546       0.33087546       0.57529541
Al      23.22500000       5.00000000      15.12500000      -0.31975358       0.31975358      -0.33995794
Al      23.22500000       7.02500000      13.10000000       0.51619746       0.22796319      -0.35755991
Al      21.20000000       9.05000000       5.00000000      -0.32248630      -0.03926414      -0.62979406
Al      21.20000000      11.07500000       7.02500000      -0.03965662      -0.00456624       0.56594036
Al      23.22500000       9.05000000       7.02500000       0.59195589      -0.02241504       0.28300257
Al      23.22500000      11.07500000       5.00000000       0.20978317      -0.01493197      -0.17225219
Al      21.23122861       9.05694632       9.07975671       0.00779511      -0.00702601      -0.05391387
Al      21.25299064      11.06887131      11.06345247       0.01984999       0.00767516      -0.00221106
Al      23.41109682       9.04469272      11.10896980      -0.00033455      -0.00130748      -0.01891893
Al      23.41597407      11.06476562       9.05657986       0.01307809       0.00097613      -0.06731747
Al      21.20000000       9.05000000      13.10000000      -0.07363499      -0.04485969      -0.49911399
Al      21.20000000      11.07500000      15.12500000      -0.33966357      -0.00949029       0.62796832
Al      23.22500000       9.05000000      15.12500000       0.20533627      -0.02824829       0.16020002
Al      23.22500000      11.07500000      13.10000000       0.62964106      -0.00774026      -0.19511236
Al      21.20000000      13.10000000       5.00000000      -0.32269876      -0.00409540      -0.62853599
Al      21.20000000      15.12500000       7.02500000      -0.01147120       0.00451487       0.56600108
Al      23.22500000      13.10000000       7.02500000       0.61890864      -0.01435245       0.31439619
Al      23.22500000      15.12500000       5.00000000       0.21067751       0.00459704      -0.17169302
Al      21.26099755      13.09592071       9.08254910       0.01731875       0.00105973      -0.05026426
Al      21.25702442      15.12764043      11.06269756       0.02104986      -0.00071594      -0.00528765
Al      23.42576674      13.09722821      11.10228125       0.00802834       0.00032904      -0.01620091
Al      23.41650152      15.12770936       9.05605775       0.01486942       0.00030784      -0.06701897
Al      21.20000000      13.10000000      13.10000000      -0.01931230      -0.00385585      -0.48366926
Al      21.20000000      15.12500000      15.12500000      -0.34041132       0.00305466       0.62726318
Al      23.22500000      13.10000000      15.12500000       0.20688255      -0.00336793       0.16104609
Al      23.22500000      15.12500000      13.10000000       0.63224701       0.01427439      -0.21955042
Al      21.20000000      17.15000000       5.00000000      -0.32276088       0.01457847      -0.62870483
Al      21.20000000      19.17500000       7.02500000      -0.07433822       0.05760127       0.58510780
Al      23.22500000      17.15000000       7.02500000       0.61414835       0.01054277       0.29279705
Al      23.22500000      19.17500000       5.00000000       0.20528311       0.03362891      -0.17034134
Al      21.25523823      17.15630722       9.08150392       0.01665363      -0.00533375      -0.05588633
Al      21.23425106      19.17137489      11.06592115       0.00650554      -0.00196684      -0.00411216
Al      23.42377578      17.15890999      11.10127245       0.00802004       0.00101996      -0.01707810
Al      23.40147850      19.18115406       9.04826861       0.00700517       0.00374539      -0.06565237
Al      21.20000000      17.15000000      13.10000000      -0.02767023       0.00091588      -0.46882532