299
Lattice="28.224999999999998 0.0 0.0 0.0 28.224999999999998 0.0 0.0 0.0 20.125" Properties=species:S:1:pos:R:3 energy=-16468.5022991573 pbc="T T T"
Al       5.00000000       5.00000000       5.00000000
Al       5.00000000       7.02500000       7.02500000
Al       7.02500000       5.00000000       7.02500000
Al       7.02500000       7.02500000       5.00000000
Al       4.98310932       4.98423402       9.11562564
Al       4.87559474       7.05242292      11.14327185
Al       7.04902270       4.87032787      11.14346526
Al       7.02819480       7.02904481       9.12714748
Al       5.00000000       5.00000000      13.10000000
Al       5.00000000       7.02500000      15.12500000
Al       7.02500000       5.00000000      15.12500000
Al       7.02500000       7.02500000      13.10000000
Al       5.00000000       9.05000000       5.00000000
Al       5.00000000      11.07500000       7.02500000
Al       7.02500000       9.05000000       7.02500000
Al       7.02500000      11.07500000       5.00000000
Al       4.82935988       9.04695746       9.07926983
Al       4.79944300      11.06529140      11.15192040
Al       6.99979047       9.06336980      11.11719714
Al       6.97810625      11.07574993       9.11352575
Al       5.00000000       9.05000000      13.10000000
Al       5.00000000      11.07500000      15.12500000
Al       7.02500000       9.05000000      15.12500000
Al       7.02500000      11.07500000      13.10000000
Al       5.00000000      13.10000000       5.00000000
Al       5.00000000      15.12500000       7.02500000
Al       7.02500000      13.10000000       7.02500000
Al       7.02500000      15.12500000       5.00000000
Al       4.80617282      13.09624843       9.08582215
Al       4.79964935      15.12740723      11.15278828
Al       6.96365556      13.09465775      11.11283041
Al       6.96257044      15.12772234       9.11206541
Al       5.00000000      13.10000000      13.10000000
Al       5.00000000      15.12500000      15.12500000
Al       7.02500000      13.10000000      15.12500000
Al       7.02500000      15.12500000      13.10000000
Al       5.00000000      17.15000000       5.00000000
Al       5.00000000      19.17500000       7.02500000
Al       7.02500000      17.15000000       7.02500000
Al       7.02500000      19.17500000       5.00000000
Al       4.80845780      17.16023231       9.08692082
Al       4.81297250      19.18029917      11.16006307
Al       6.96903984      17.15735936      11.11386579
Al       6.99803907      19.16467290       9.11151000
Al       5.00000000      17.15000000      13.10000000
Al       5.00000000      19.17500000      15.12500000
Al       7.02500000      17.15000000      15.12500000
Al       7.02500000      19.17500000      13.10000000
Al       5.00000000      21.20000000       5.00000000
Al       5.00000000      23.22500000       7.02500000
Al       7.02500000      21.20000000       7.02500000
Al       7.02500000      23.22500000       5.00000000
Al       4.88613430      21.17340842       9.09766767
Al       4.97156465      23.25343535      11.13115401
Al       7.03323000      21.19177000      11.10457341
Al       7.05159158      23.33886570       9.09766767
Al       5.00000000      21.20000000      13.10000000
Al       5.00000000      23.22500000      15.12500000
Al       7.02500000      21.20000000      15.12500000
Al       7.02500000      23.22500000      13.10000000
Al       9.05000000       5.00000000       5.00000000
Al       9.05000000       7.02500000       7.02500000
Al      11.07500000       5.00000000       7.02500000
Al      11.07500000       7.02500000       5.00000000
Al       9.04384594       4.82352150       9.07862629
Al       9.05362511       6.99074894      11.11645537
Al      11.06609001       4.80122422      11.15216017
Al      11.06869278       6.96976177       9.11219396
Al       9.05000000       5.00000000      13.10000000
Al       9.05000000       7.02500000      15.12500000
Al      11.07500000       5.00000000      15.12500000
Al      11.07500000       7.02500000      13.10000000
Al       9.05000000       9.05000000       5.00000000
Al       9.05000000      11.07500000       7.02500000
Al      11.07500000       9.05000000       7.02500000
Al      11.07500000      11.07500000       5.00000000
Al       9.05450714       9.05641341       9.09502218
Al       9.06046649      11.09755645      11.13160332
Al      11.07140718       9.03261046      11.12962700
Al      11.08420860      11.08906126       9.10460671
Al       9.05000000       9.05000000      13.10000000
Al       9.05000000      11.07500000      15.12500000
Al      11.07500000       9.05000000      15.12500000
Al      11.07500000      11.07500000      13.10000000
Al       9.05000000      13.10000000       5.00000000
Al       9.05000000      15.12500000       7.02500000
Al      11.07500000      13.10000000       7.02500000
Al      11.07500000      15.12500000       5.00000000
Al       9.04541886      13.11172153       9.10332000
Al       9.01027411      15.12561195      11.13373251
Al      11.13940458      13.17139882      11.14851228
Al      11.11120975      15.12533272       9.13240989
Al       9.05000000      13.10000000      13.10000000
Al       9.05000000      15.12500000      15.12500000
Al      11.07500000      13.10000000      15.12500000
Al      11.07500000      15.12500000      13.10000000
Al       9.05000000      17.15000000       5.00000000
Al       9.05000000      19.17500000       7.02500000
Al      11.07500000      17.15000000       7.02500000
Al      11.07500000      19.17500000       5.00000000
Al       9.05347207      17.13838653       9.10388835
Al       9.07269235      19.15230765      11.13223694
Al      11.14397829      17.08102171      11.14749062
Al      11.08661347      19.17152793       9.10388835
Al       9.05000000      17.15000000      13.10000000
Al       9.05000000      19.17500000      15.12500000
Al      11.07500000      17.15000000      15.12500000
Al      11.07500000      19.17500000      13.10000000
Al       9.05000000      21.20000000       5.00000000
Al       9.05000000      23.22500000       7.02500000
Al      11.07500000      21.20000000       7.02500000
Al      11.07500000      23.22500000       5.00000000
Al       9.06032710      21.22696093       9.11151000
Al       9.04470083      23.41202750      11.16006307
Al      11.06764064      21.25596016      11.11386579
Al      11.06476769      23.41654220       9.08692082
Al       9.05000000      21.20000000      13.10000000
Al       9.05000000      23.22500000      15.12500000
Al      11.07500000      21.20000000      15.12500000
Al      11.07500000      23.22500000      13.10000000
Al      13.10000000       5.00000000       5.00000000
Al      13.10000000       7.02500000       7.02500000
Al      15.12500000       5.00000000       7.02500000
Al      15.12500000       7.02500000       5.00000000
Al      13.09729064       4.80849848       9.08649332
Al      13.09735957       6.96797558      11.11319954
Al      15.12777179       4.79923326      11.15317906
Al      15.12907929       6.96400245       9.11324960
Al      13.10000000       5.00000000      13.10000000
Al      13.10000000       7.02500000      15.12500000
Al      15.12500000       5.00000000      15.12500000
Al      15.12500000       7.02500000      13.10000000
Al      13.10000000       9.05000000       5.00000000
Al      13.10000000      11.07500000       7.02500000
Al      15.12500000       9.05000000       7.02500000
Al      15.12500000      11.07500000       5.00000000
Al      13.09920300       9.02515711       9.09161451
Al      13.10006094      11.04682777      11.13411203
Al      15.12854421       9.02499839      11.12993364
Al      15.11264580      11.08416242       9.10315300
Al      13.10000000       9.05000000      13.10000000
Al      13.10000000      11.07500000      15.12500000
Al      15.12500000       9.05000000      15.12500000
Al      15.12500000      11.07500000      13.10000000
Al      13.10000000      13.10000000       5.00000000
Al      13.10000000      15.12500000       7.02500000
Al      15.12500000      13.10000000       7.02500000
Al      15.12500000      15.12500000       5.00000000
Al      13.09859253      13.14325592       9.13260320
Al      15.05393936      13.17106064      11.14958665
Al      15.08174408      15.12640747       9.13260320
Al      13.10000000      13.10000000      13.10000000
Al      13.10000000      15.12500000      15.12500000
Al      15.12500000      13.10000000      15.12500000
Al      15.12500000      15.12500000      13.10000000
Al      13.10000000      17.15000000       5.00000000
Al      13.10000000      19.17500000       7.02500000
Al      15.12500000      17.15000000       7.02500000
Al      15.12500000      19.17500000       5.00000000
Al      13.09966728      17.11379025       9.13240989
Al      13.09938805      19.21472589      11.13373251
Al      15.05360118      17.08559542      11.14851228
Al      15.11327847      19.17958114       9.10332000
Al      13.10000000      17.15000000      13.10000000
Al      13.10000000      19.17500000      15.12500000
Al      15.12500000      17.15000000      15.12500000
Al      15.12500000      19.17500000      13.10000000
Al      13.10000000      21.20000000       5.00000000
Al      13.10000000      23.22500000       7.02500000
Al      15.12500000      21.20000000       7.02500000
Al      15.12500000      23.22500000       5.00000000
Al      13.09727766      21.26242956       9.11206541
Al      13.09759277      23.42535065      11.15278828
Al      15.13034225      21.26134444      11.11283041
Al      15.12875157      23.41882718       9.08582215
Al      13.10000000      21.20000000      13.10000000
Al      13.10000000      23.22500000      15.12500000
Al      15.12500000      21.20000000      15.12500000
Al      15.12500000      23.22500000      13.10000000
Al      17.15000000       5.00000000       5.00000000
Al      17.15000000       7.02500000       7.02500000
Al      19.17500000       5.00000000       7.02500000
Al      19.17500000       7.02500000       5.00000000
Al      17.16023438       4.80902593       9.08702066
Al      17.15612869       6.97200936      11.11396200
Al      19.18030728       4.81390318      11.15993450
Al      19.16805368       6.99377139       9.11042928
Al      17.15000000       5.00000000      13.10000000
Al      17.15000000       7.02500000      15.12500000
Al      19.17500000       5.00000000      15.12500000
Al      19.17500000       7.02500000      13.10000000
Al      17.15000000       9.05000000       5.00000000
Al      17.15000000      11.07500000       7.02500000
Al      19.17500000       9.05000000       7.02500000
Al      19.17500000      11.07500000       5.00000000
Al      17.14528451       9.04343042       9.09530327
Al      17.12958795      11.09541205      11.13121286
Al      19.16763335       9.05736665      11.13052628
Al      19.18156958      11.07971549       9.09530327
Al      17.15000000       9.05000000      13.10000000
Al      17.15000000      11.07500000      15.12500000
Al      19.17500000       9.05000000      15.12500000
Al      19.17500000      11.07500000      13.10000000
Al      17.15000000      13.10000000       5.00000000
Al      17.15000000      15.12500000       7.02500000
Al      19.17500000      13.10000000       7.02500000
Al      19.17500000      15.12500000       5.00000000
Al      17.14083758      13.11235420       9.10315300
Al      17.17817223      15.12493906      11.13411203
Al      19.20000161      13.09645579      11.12993364
Al      19.19984289      15.12579700       9.09161451
Al      17.15000000      13.10000000      13.10000000
Al      17.15000000      15.12500000      15.12500000
Al      19.17500000      13.10000000      15.12500000
Al      19.17500000      15.12500000      13.10000000
Al      17.15000000      17.15000000       5.00000000
Al      17.15000000      19.17500000       7.02500000
Al      19.17500000      17.15000000       7.02500000
Al      19.17500000      19.17500000       5.00000000
Al      17.13593874      17.14079140       9.10460671
Al      17.12744355      19.16453351      11.13160332
Al      19.19238954      17.15359282      11.12962700
Al      19.16858659      19.17049286       9.09502218
Al      17.15000000      17.15000000      13.10000000
Al      17.15000000      19.17500000      15.12500000
Al      19.17500000      17.15000000      15.12500000
Al      19.17500000      19.17500000      13.10000000
Al      17.15000000      21.20000000       5.00000000
Al      17.15000000      23.22500000       7.02500000
Al      19.17500000      21.20000000       7.02500000
Al      19.17500000      23.22500000       5.00000000
Al      17.14925007      21.24689375       9.11352575
Al      17.15970860      23.42555700      11.15192040
Al      19.16163020      21.22520953      11.11719714
Al      19.17804254      23.39564012       9.07926983
Al      17.15000000      21.20000000      13.10000000
Al      17.15000000      23.22500000      15.12500000
Al      19.17500000      21.20000000      15.12500000
Al      19.17500000      23.22500000      13.10000000
Al      21.20000000       5.00000000       5.00000000
Al      21.20000000       7.02500000       7.02500000
Al      23.22500000       5.00000000       7.02500000
Al      23.22500000       7.02500000       5.00000000
Al      21.17527457       4.88221928       9.09670465
Al      21.19706661       7.02793339      11.10395611
Al      23.25604046       4.96895954      11.13122524
Al      23.34278072       7.04972543       9.09670465
Al      21.20000000       5.00000000      13.10000000
Al      21.20000000       7.02500000      15.12500000
Al      23.22500000       5.00000000      15.12500000
Al      23.22500000       7.02500000      13.10000000
Al      21.20000000       9.05000000       5.00000000
Al      21.20000000      11.07500000       7.02500000
Al      23.22500000       9.05000000       7.02500000
Al      23.22500000      11.07500000       5.00000000
Al      21.23122861       9.05694632       9.11042928
Al      21.25299064      11.06887131      11.11396200
Al      23.41109682       9.04469272      11.15993450
Al      23.41597407      11.06476562       9.08702066
Al      21.20000000       9.05000000      13.10000000
Al      21.20000000      11.07500000      15.12500000
Al      23.22500000       9.05000000      15.12500000
Al      23.22500000      11.07500000      13.10000000
Al      21.20000000      13.10000000       5.00000000
Al      21.20000000      15.12500000       7.02500000
Al      23.22500000      13.10000000       7.02500000
Al      23.22500000      15.12500000       5.00000000
Al      21.26099755      13.09592071       9.11324960
Al      21.25702442      15.12764043      11.11319954
Al      23.42576674      13.09722821      11.15317906
Al      23.41650152      15.12770936       9.08649332
Al      21.20000000      13.10000000      13.10000000
Al      21.20000000      15.12500000      15.12500000
Al      23.22500000      13.10000000      15.12500000
Al      23.22500000      15.12500000      13.10000000
Al      21.20000000      17.15000000       5.00000000
Al      21.20000000      19.17500000       7.02500000
Al      23.22500000      17.15000000       7.02500000
Al      23.22500000      19.17500000       5.00000000
Al      21.25523823      17.15630722       9.11219396
Al      21.23425106      19.17137489      11.11645537
Al      23.42377578      17.15890999      11.15216017
Al      23.40147850      19.18115406       9.07862629
Al      21.20000000      17.15000000      13.10000000
Al      21.20000000      19.17500000      15.12500000
Al      23.22500000      17.15000000      15.12500000
Al      23.22500000      19.17500000      13.10000000
Al      21.20000000      21.20000000       5.00000000
Al      21.20000000      23.22500000       7.02500000
Al      23.22500000      21.20000000       7.02500000
Al      23.22500000      23.22500000       5.00000000
Al      21.19595519      21.19680520       9.12714748
Al      21.17257708      23.34940526      11.14327185
Al      23.35467213      21.17597730      11.14346526
Al      23.24076598      23.24189068       9.11562564
Al      21.20000000      21.20000000      13.10000000
Al      21.20000000      23.22500000      15.12500000
Al      23.22500000      21.20000000      15.12500000
Al      23.22500000      23.22500000      13.10000000
