299
Lattice="28.224999999999998 0.0 0.0 0.0 28.224999999999998 0.0 0.0 0.0 20.125" Properties=species:S:1:pos:R:3 energy=-16468.674130533258 pbc="T T T"
Al       5.00000000       5.00000000       5.00000000
Al       5.00000000       7.02500000       7.02500000
Al       7.02500000       5.00000000       7.02500000
Al       7.02500000       7.02500000       5.00000000
Al       4.98375304       4.98463006       9.11111802
Al       4.87457044       7.05293698      11.13849701
Al       7.05033012       4.86825243      11.13907595
Al       7.02808125       7.02771127       9.11485841
Al       5.00000000       5.00000000      13.10000000
Al       5.00000000       7.02500000      15.12500000
Al       7.02500000       5.00000000      15.12500000
Al       7.02500000       7.02500000      13.10000000
Al       5.00000000       9.05000000       5.00000000
Al       5.00000000      11.07500000       7.02500000
Al       7.02500000       9.05000000       7.02500000
Al       7.02500000      11.07500000       5.00000000
Al       4.83139653       9.04483917       9.06742055
Al       4.79135581      11.06470871      11.14461837
Al       6.99847706       9.06337938      11.10976224
Al       6.97374540      11.07580450       9.09964458
Al       5.00000000       9.05000000      13.10000000
Al       5.00000000      11.07500000      15.12500000
Al       7.02500000       9.05000000      15.12500000
Al       7.02500000      11.07500000      13.10000000
Al       5.00000000      13.10000000       5.00000000
Al       5.00000000      15.12500000       7.02500000
Al       7.02500000      13.10000000       7.02500000
Al       7.02500000      15.12500000       5.00000000
Al       4.80224856      13.09620582       9.07305153
Al       4.78944148      15.12808627      11.14566648
Al       6.95844332      13.09482538      11.10356711
Al       6.95716160      15.12813455       9.09861931
Al       5.00000000      13.10000000      13.10000000
Al       5.00000000      15.12500000      15.12500000
Al       7.02500000      13.10000000      15.12500000
Al       7.02500000      15.12500000      13.10000000
Al       5.00000000      17.15000000       5.00000000
Al       5.00000000      19.17500000       7.02500000
Al       7.02500000      17.15000000       7.02500000
Al       7.02500000      19.17500000       5.00000000
Al       4.80609192      17.16117609       9.07394612
Al       4.80821573      19.18115208      11.15250489
Al       6.96455494      17.15740615      11.10536205
Al       6.99581089      19.16681237       9.09765666
Al       5.00000000      17.15000000      13.10000000
Al       5.00000000      19.17500000      15.12500000
Al       7.02500000      17.15000000      15.12500000
Al       7.02500000      19.17500000      13.10000000
Al       5.00000000      21.20000000       5.00000000
Al       5.00000000      23.22500000       7.02500000
Al       7.02500000      21.20000000       7.02500000
Al       7.02500000      23.22500000       5.00000000
Al       4.88861718      21.17810165       9.08881755
Al       4.96798405      23.25701595      11.13192031
Al       7.03232011      21.19267989      11.09903172
Al       7.04689835      23.33638282       9.08881755
Al       5.00000000      21.20000000      13.10000000
Al       5.00000000      23.22500000      15.12500000
Al       7.02500000      21.20000000      15.12500000
Al       7.02500000      23.22500000      13.10000000
Al       9.05000000       5.00000000       5.00000000
Al       9.05000000       7.02500000       7.02500000
Al      11.07500000       5.00000000       7.02500000
Al      11.07500000       7.02500000       5.00000000
Al       9.04205005       4.82457518       9.06663034
Al       9.05378445       6.98907333      11.10918236
Al      11.06496349       4.79270159      11.14479745
Al      11.06858918       6.96527058       9.09836258
Al       9.05000000       5.00000000      13.10000000
Al       9.05000000       7.02500000      15.12500000
Al      11.07500000       5.00000000      15.12500000
Al      11.07500000       7.02500000      13.10000000
Al       9.05000000       9.05000000       5.00000000
Al       9.05000000      11.07500000       7.02500000
Al      11.07500000       9.05000000       7.02500000
Al      11.07500000      11.07500000       5.00000000
Al       9.05255004       9.05467183       9.07932714
Al       9.05721964      11.09679256      11.12170704
Al      11.07148431       9.03082918      11.11945106
Al      11.08360412      11.08829164       9.08598271
Al       9.05000000       9.05000000      13.10000000
Al       9.05000000      11.07500000      15.12500000
Al      11.07500000       9.05000000      15.12500000
Al      11.07500000      11.07500000      13.10000000
Al       9.05000000      13.10000000       5.00000000
Al       9.05000000      15.12500000       7.02500000
Al      11.07500000      13.10000000       7.02500000
Al      11.07500000      15.12500000       5.00000000
Al       9.04177395      13.11106036       9.08630657
Al       9.00688507      15.12614686      11.12333869
Al      11.13598195      13.16846545      11.14127372
Al      11.11196168      15.12590333       9.11702088
Al       9.05000000      13.10000000      13.10000000
Al       9.05000000      15.12500000      15.12500000
Al      11.07500000      13.10000000      15.12500000
Al      11.07500000      15.12500000      13.10000000
Al       9.05000000      17.15000000       5.00000000
Al       9.05000000      19.17500000       7.02500000
Al      11.07500000      17.15000000       7.02500000
Al      11.07500000      19.17500000       5.00000000
Al       9.04979615      17.13907631       9.08632031
Al       9.07046590      19.15453410      11.12233632
Al      11.14118324      17.08381676      11.14069126
Al      11.08592369      19.17520385       9.08632031
Al       9.05000000      17.15000000      13.10000000
Al       9.05000000      19.17500000      15.12500000
Al      11.07500000      17.15000000      15.12500000
Al      11.07500000      19.17500000      13.10000000
Al       9.05000000      21.20000000       5.00000000
Al       9.05000000      23.22500000       7.02500000
Al      11.07500000      21.20000000       7.02500000
Al      11.07500000      23.22500000       5.00000000
Al       9.05818763      21.22918911       9.09765666
Al       9.04384792      23.41678427      11.15250489
Al      11.06759385      21.26044506      11.10536205
Al      11.06382391      23.41890808       9.07394612
Al       9.05000000      21.20000000      13.10000000
Al       9.05000000      23.22500000      15.12500000
Al      11.07500000      21.20000000      15.12500000
Al      11.07500000      23.22500000      13.10000000
Al      13.10000000       5.00000000       5.00000000
Al      13.10000000       7.02500000       7.02500000
Al      15.12500000       5.00000000       7.02500000
Al      15.12500000       7.02500000       5.00000000
Al      13.09688368       4.80471072       9.07380575
Al      13.09696654       6.96259946      11.10435686
Al      15.12805384       4.78933194      11.14605549
Al      15.12911776       6.95872187       9.10025032
Al      13.10000000       5.00000000      13.10000000
Al      13.10000000       7.02500000      15.12500000
Al      15.12500000       5.00000000      15.12500000
Al      15.12500000       7.02500000      13.10000000
Al      13.10000000       9.05000000       5.00000000
Al      13.10000000      11.07500000       7.02500000
Al      15.12500000       9.05000000       7.02500000
Al      15.12500000      11.07500000       5.00000000
Al      13.09884635       9.02204746       9.07537250
Al      13.09952361      11.04591637      11.12423210
Al      15.12872463       9.02297708      11.11920983
Al      15.11321577      11.08356753       9.08531497
Al      13.10000000       9.05000000      13.10000000
Al      13.10000000      11.07500000      15.12500000
Al      15.12500000       9.05000000      15.12500000
Al      15.12500000      11.07500000      13.10000000
Al      13.10000000      13.10000000       5.00000000
Al      13.10000000      15.12500000       7.02500000
Al      15.12500000      13.10000000       7.02500000
Al      15.12500000      15.12500000       5.00000000
Al      13.09805135      13.14493037       9.11809885
Al      15.05715569      13.16784431      11.14192062
Al      15.08006963      15.12694865       9.11809885
Al      13.10000000      13.10000000      13.10000000
Al      13.10000000      15.12500000      15.12500000
Al      15.12500000      13.10000000      15.12500000
Al      15.12500000      15.12500000      13.10000000
Al      13.10000000      17.15000000       5.00000000
Al      13.10000000      19.17500000       7.02500000
Al      15.12500000      17.15000000       7.02500000
Al      15.12500000      19.17500000       5.00000000
Al      13.09909667      17.11303832       9.11702088
Al      13.09885314      19.21811493      11.12333869
Al      15.05653455      17.08901805      11.14127372
Al      15.11393964      19.18322605       9.08630657
Al      13.10000000      17.15000000      13.10000000
Al      13.10000000      19.17500000      15.12500000
Al      15.12500000      17.15000000      15.12500000
Al      15.12500000      19.17500000      13.10000000
Al      13.10000000      21.20000000       5.00000000
Al      13.10000000      23.22500000       7.02500000
Al      15.12500000      21.20000000       7.02500000
Al      15.12500000      23.22500000       5.00000000
Al      13.09686545      21.26783840       9.09861931
Al      13.09691373      23.43555852      11.14566648
Al      15.13017462      21.26655668      11.10356711
Al      15.12879418      23.42275144       9.07305153
Al      13.10000000      21.20000000      13.10000000
Al      13.10000000      23.22500000      15.12500000
Al      15.12500000      21.20000000      15.12500000
Al      15.12500000      23.22500000      13.10000000
Al      17.15000000       5.00000000       5.00000000
Al      17.15000000       7.02500000       7.02500000
Al      19.17500000       5.00000000       7.02500000
Al      19.17500000       7.02500000       5.00000000
Al      17.16064700       4.80687251       9.07438328
Al      17.15592810       6.96752160      11.10582404
Al      19.18080303       4.80910868      11.15242862
Al      19.16991081       6.99135520       9.09679828
Al      17.15000000       5.00000000      13.10000000
Al      17.15000000       7.02500000      15.12500000
Al      19.17500000       5.00000000      15.12500000
Al      19.17500000       7.02500000      13.10000000
Al      17.15000000       9.05000000       5.00000000
Al      17.15000000      11.07500000       7.02500000
Al      19.17500000       9.05000000       7.02500000
Al      19.17500000      11.07500000       5.00000000
Al      17.14541878       9.04044436       9.07895646
Al      17.13119905      11.09380095      11.12167277
Al      19.16907399       9.05592601      11.12067236
Al      19.18455564      11.07958122       9.07895646
Al      17.15000000       9.05000000      13.10000000
Al      17.15000000      11.07500000      15.12500000
Al      19.17500000       9.05000000      15.12500000
Al      19.17500000      11.07500000      13.10000000
Al      17.15000000      13.10000000       5.00000000
Al      17.15000000      15.12500000       7.02500000
Al      19.17500000      13.10000000       7.02500000
Al      19.17500000      15.12500000       5.00000000
Al      17.14143247      13.11178423       9.08531497
Al      17.17908363      15.12547639      11.12423210
Al      19.20202292      13.09627537      11.11920983
Al      19.20295254      15.12615365       9.07537250
Al      17.15000000      13.10000000      13.10000000
Al      17.15000000      15.12500000      15.12500000
Al      19.17500000      13.10000000      15.12500000
Al      19.17500000      15.12500000      13.10000000
Al      17.15000000      17.15000000       5.00000000
Al      17.15000000      19.17500000       7.02500000
Al      19.17500000      17.15000000       7.02500000
Al      19.17500000      19.17500000       5.00000000
Al      17.13670836      17.14139588       9.08598271
Al      17.12820744      19.16778036      11.12170704
Al      19.19417082      17.15351569      11.11945106
Al      19.17032817      19.17244996       9.07932714
Al      17.15000000      17.15000000      13.10000000
Al      17.15000000      19.17500000      15.12500000
Al      19.17500000      17.15000000      15.12500000
Al      19.17500000      19.17500000      13.10000000
Al      17.15000000      21.20000000       5.00000000
Al      17.15000000      23.22500000       7.02500000
Al      19.17500000      21.20000000       7.02500000
Al      19.17500000      23.22500000       5.00000000
Al      17.14919550      21.25125460       9.09964458
Al      17.16029129      23.43364419      11.14461837
Al      19.16162062      21.22652294      11.10976224
Al      19.18016083      23.39360347       9.06742055
Al      17.15000000      21.20000000      13.10000000
Al      17.15000000      23.22500000      15.12500000
Al      19.17500000      21.20000000      15.12500000
Al      19.17500000      23.22500000      13.10000000
Al      21.20000000       5.00000000       5.00000000
Al      21.20000000       7.02500000       7.02500000
Al      23.22500000       5.00000000       7.02500000
Al      23.22500000       7.02500000       5.00000000
Al      21.18004141       4.88472787       9.08850703
Al      21.19822665       7.02677335      11.09815295
Al      23.25990298       4.96509702      11.13294900
Al      23.34027213       7.04495859       9.08850703
Al      21.20000000       5.00000000      13.10000000
Al      21.20000000       7.02500000      15.12500000
Al      23.22500000       5.00000000      15.12500000
Al      23.22500000       7.02500000      13.10000000
Al      21.20000000       9.05000000       5.00000000
Al      21.20000000      11.07500000       7.02500000
Al      23.22500000       9.05000000       7.02500000
Al      23.22500000      11.07500000       5.00000000
Al      21.23364480       9.05508919       9.09679828
Al      21.25747840      11.06907190      11.10582404
Al      23.41589132       9.04419697      11.15242862
Al      23.41812749      11.06435300       9.07438328
Al      21.20000000       9.05000000      13.10000000
Al      21.20000000      11.07500000      15.12500000
Al      23.22500000       9.05000000      15.12500000
Al      23.22500000      11.07500000      13.10000000
Al      21.20000000      13.10000000       5.00000000
Al      21.20000000      15.12500000       7.02500000
Al      23.22500000      13.10000000       7.02500000
Al      23.22500000      15.12500000       5.00000000
Al      21.26627813      13.09588224       9.10025032
Al      21.26240054      15.12803346      11.10435686
Al      23.43566806      13.09694616      11.14605549
Al      23.42028928      15.12811632       9.07380575
Al      21.20000000      13.10000000      13.10000000
Al      21.20000000      15.12500000      15.12500000
Al      23.22500000      13.10000000      15.12500000
Al      23.22500000      15.12500000      13.10000000
Al      21.20000000      17.15000000       5.00000000
Al      21.20000000      19.17500000       7.02500000
Al      23.22500000      17.15000000       7.02500000
Al      23.22500000      19.17500000       5.00000000
Al      21.25972942      17.15641082       9.09836258
Al      21.23592667      19.17121555      11.10918236
Al      23.43229841      17.16003651      11.14479745
Al      23.40042482      19.18294995       9.06663034
Al      21.20000000      17.15000000      13.10000000
Al      21.20000000      19.17500000      15.12500000
Al      23.22500000      17.15000000      15.12500000
Al      23.22500000      19.17500000      13.10000000
Al      21.20000000      21.20000000       5.00000000
Al      21.20000000      23.22500000       7.02500000
Al      23.22500000      21.20000000       7.02500000
Al      23.22500000      23.22500000       5.00000000
Al      21.19728873      21.19691875       9.11485841
Al      21.17206302      23.35042956      11.13849701
Al      23.35674757      21.17466988      11.13907595
Al      23.24036994      23.24124696       9.11111802
Al      21.20000000      21.20000000      13.10000000
Al      21.20000000      23.22500000      15.12500000
Al      23.22500000      21.20000000      15.12500000
Al      23.22500000      23.22500000      13.10000000
