299
Lattice="28.224999999999998 0.0 0.0 0.0 28.224999999999998 0.0 0.0 0.0 20.125" Properties=species:S:1:pos:R:3:forces:R:3 energy=-16469.07119727185 pbc="T T T"
Al       5.00000000       5.00000000       5.00000000       0.32670402       0.32669474       0.31956521
Al       5.00000000       7.02500000       7.02500000      -0.49842869       0.23272809       0.42268197
Al       7.02500000       5.00000000       7.02500000       0.22719722      -0.49695419       0.41916514
Al       7.02500000       7.02500000       5.00000000       0.33001098       0.32987764      -0.58289912
Al       4.98375304       4.98463006       9.08043864      -0.00258542      -0.00256094      -0.00564447
Al       4.87457044       7.05293698      11.08774457       0.01561031      -0.00466314      -0.03088101
Al       7.05033012       4.86825243      11.08831777      -0.00373717       0.01478423      -0.03114805
Al       7.02808125       7.02771127       9.08414199       0.00703471       0.00594537       0.04464728
Al       5.00000000       5.00000000      13.10000000      -0.06690055      -0.06133898      -0.52642245
Al       5.00000000       7.02500000      15.12500000      -0.10710773       0.45044663       0.06739869
Al       7.02500000       5.00000000      15.12500000       0.45053849      -0.10753997       0.06644617
Al       7.02500000       7.02500000      13.10000000       0.14075737       0.14530985      -0.66690888
Al       5.00000000       9.05000000       5.00000000      -0.19927170      -0.03442962      -0.17552496
Al       5.00000000      11.07500000       7.02500000      -0.62405684      -0.01778599       0.26450098
Al       7.02500000       9.05000000       7.02500000       0.07797267      -0.05498537       0.54442326
Al       7.02500000      11.07500000       5.00000000       0.33492017      -0.01765309      -0.64108340
Al       4.83139653       9.04483917       9.03717381      -0.00447749      -0.00590340       0.01452209
Al       4.79135581      11.06470871      11.09380532       0.01032996      -0.00181788      -0.02975935
Al       6.99847706       9.06337938      11.05929430       0.00405013      -0.00247093      -0.03927978
Al       6.97374540      11.07580450       9.06907880       0.01042497      -0.00230635       0.05366448
Al       5.00000000       9.05000000      13.10000000      -0.60420712      -0.01165222      -0.21046825
Al       5.00000000      11.07500000      15.12500000      -0.22185349      -0.01773359       0.15985891
Al       7.02500000       9.05000000      15.12500000       0.31452394      -0.04534631       0.62515551
Al       7.02500000      11.07500000      13.10000000       0.04258213       0.00063638      -0.55144138
Al       5.00000000      13.10000000       5.00000000      -0.20714005      -0.00526461      -0.17919796
Al       5.00000000      15.12500000       7.02500000      -0.65070431       0.01741170       0.26897169
Al       7.02500000      13.10000000       7.02500000       0.04632287      -0.00523355       0.55612858
Al       7.02500000      15.12500000       5.00000000       0.33400716       0.00587776      -0.64274117
Al       4.80224856      13.09620582       9.04274904      -0.01186066      -0.00143815       0.01391008
Al       4.78944148      15.12808627      11.09484305       0.00892643       0.00103151      -0.02869565
Al       6.95844332      13.09482538      11.05316051      -0.00152451      -0.00202513      -0.03640909
Al       6.95716160      15.12813455       9.06806368       0.00837301       0.00173911       0.05414041
Al       5.00000000      13.10000000      13.10000000      -0.64741932      -0.01614252      -0.25122570
Al       5.00000000      15.12500000      15.12500000      -0.22323687       0.00545035       0.15987897
Al       7.02500000      13.10000000      15.12500000       0.31446429      -0.00485511       0.62644855
Al       7.02500000      15.12500000      13.10000000      -0.02566327       0.00614810      -0.52266731
Al       5.00000000      17.15000000       5.00000000      -0.20481784       0.01685925      -0.17794901
Al       5.00000000      19.17500000       7.02500000      -0.60065610       0.03610348       0.26269036
Al       7.02500000      17.15000000       7.02500000       0.05873272       0.01242040       0.54383054
Al       7.02500000      19.17500000       5.00000000       0.33488959       0.03801912      -0.63756605
Al       4.80609192      17.16117609       9.04363478      -0.00904453       0.00245246       0.01353759
Al       4.80821573      19.18115208      11.10161376       0.01404710       0.00126812      -0.02975386
Al       6.96455494      17.15740615      11.05493767      -0.00134514       0.00125875      -0.03821854
Al       6.99581089      19.16681237       9.06711055       0.01081974       0.00266879       0.05225449
Al       5.00000000      17.15000000      13.10000000      -0.63928204       0.01344451      -0.22722811
Al       5.00000000      19.17500000      15.12500000      -0.21474958       0.03855139       0.15739416
Al       7.02500000      17.15000000      15.12500000       0.31453827       0.01782958       0.62551190
Al       7.02500000      19.17500000      13.10000000       0.07885181       0.05021312      -0.56288461
Al       5.00000000      21.20000000       5.00000000      -0.09667018      -0.45813308      -0.08664907
Al       5.00000000      23.22500000       7.02500000      -0.04218088       0.04218088       0.55061965
Al       7.02500000      21.20000000       7.02500000       0.15592912      -0.15592912       0.66976943
Al       7.02500000      23.22500000       5.00000000       0.45813308       0.09667018      -0.08664907
Al       4.88861718      21.17810165       9.05835896      -0.00012139      -0.00364376       0.01004808
Al       4.96798405      23.25701595      11.08123298       0.01001101      -0.01001101      -0.03105318
Al       7.03232011      21.19267989      11.04867002       0.00595743      -0.00595743      -0.03605715
Al       7.04689835      23.33638282       9.05835896       0.00364376       0.00012139       0.01004808
Al       5.00000000      21.20000000      13.10000000      -0.50711283      -0.23364539      -0.37535212
Al       5.00000000      23.22500000      15.12500000       0.31902519      -0.31902519      -0.34631200
Al       7.02500000      21.20000000      15.12500000       0.31416534      -0.31416534       0.56875546
Al       7.02500000      23.22500000      13.10000000       0.23364539       0.50711283      -0.37535212
Al       9.05000000       5.00000000       5.00000000      -0.03399609      -0.19960447      -0.17456337
Al       9.05000000       7.02500000       7.02500000      -0.06354325       0.07561382       0.54325320
Al      11.07500000       5.00000000       7.02500000      -0.01707002      -0.63703256       0.25507579
Al      11.07500000       7.02500000       5.00000000      -0.01666964       0.33486456      -0.63962994
Al       9.04205005       4.82457518       9.03639142      -0.00437712      -0.00441597       0.01464954
Al       9.05378445       6.98907333      11.05872016      -0.00447966       0.00090487      -0.03968792
Al      11.06496349       4.79270159      11.09398262      -0.00102301       0.01020102      -0.02997793
Al      11.06858918       6.96527058       9.06780948      -0.00233941       0.00809951       0.05222645
Al       9.05000000       5.00000000      13.10000000      -0.01346342      -0.61489795      -0.20207757
Al       9.05000000       7.02500000      15.12500000      -0.04494084       0.31446837       0.62431580
Al      11.07500000       5.00000000      15.12500000      -0.01740998      -0.22164922       0.15980783
Al      11.07500000       7.02500000      13.10000000      -0.00673060       0.01416017      -0.53045769
Al       9.05000000       9.05000000       5.00000000      -0.03843863      -0.03886757      -0.69946084
Al       9.05000000      11.07500000       7.02500000      -0.10824268       0.00774386       0.38686639
Al      11.07500000       9.05000000       7.02500000      -0.02537076      -0.10801585       0.37670582
Al      11.07500000      11.07500000       5.00000000      -0.02056711      -0.02089023      -0.70634659
Al       9.05255004       9.05467183       9.04896252      -0.00798761      -0.00737152       0.06153040
Al       9.05721964      11.09679256      11.07112083      -0.00146818       0.00356385      -0.03586124
Al      11.07148431       9.03082918      11.06888718      -0.00039049      -0.00441619      -0.03538288
Al      11.08360412      11.08829164       9.05555219      -0.00817721      -0.00786467       0.06420908
Al       9.05000000       9.05000000      13.10000000      -0.09549057      -0.07679489      -0.43825275
Al       9.05000000      11.07500000      15.12500000      -0.04762401      -0.01854368       0.69006152
Al      11.07500000       9.05000000      15.12500000      -0.01829987      -0.04799383       0.68822535
Al      11.07500000      11.07500000      13.10000000      -0.02473978      -0.00096898      -0.37803275
Al       9.05000000      13.10000000       5.00000000      -0.04163076      -0.00698478      -0.70700136
Al       9.05000000      15.12500000       7.02500000      -0.04480911       0.00814794       0.45116407
Al      11.07500000      13.10000000       7.02500000       0.00316773       0.04492094       0.33630692
Al      11.07500000      15.12500000       5.00000000      -0.01876312       0.00672396      -0.71135076
Al       9.04177395      13.11106036       9.05587284      -0.01009198      -0.00505787       0.06481939
Al       9.00688507      15.12614686      11.07273632      -0.00909625       0.00041473      -0.02991846
Al      11.13598195      13.16846545      11.09049378       0.00473798       0.00155363      -0.02985632
Al      11.11196168      15.12590333       9.08628305      -0.02155678       0.00285891       0.04525310
Al       9.05000000      13.10000000      13.10000000      -0.10703391       0.00879639      -0.42651511
Al       9.05000000      15.12500000      15.12500000      -0.04741965       0.00561026       0.68636074
Al      11.07500000      13.10000000      15.12500000      -0.02923912      -0.01532257       0.70709958
Al      11.07500000      15.12500000      13.10000000       0.35772831       0.01103555      -0.50835498
Al       9.05000000      17.15000000       5.00000000      -0.04094618       0.01972960      -0.70455603
Al       9.05000000      19.17500000       7.02500000      -0.07800759       0.07800759       0.43466533
Al      11.07500000      17.15000000       7.02500000       0.01238866      -0.01238866       0.34410485
Al      11.07500000      19.17500000       5.00000000      -0.01972960       0.04094618      -0.70455603
Al       9.04979615      17.13907631       9.05588644      -0.01104571       0.00853337       0.06209300
Al       9.07046590      19.15453410      11.07174388      -0.00060491       0.00060491      -0.03884399
Al      11.14118324      17.08381676      11.08991709       0.00370136      -0.00370136      -0.03162475
Al      11.08592369      19.17520385       9.05588644      -0.00853337       0.01104571       0.06209300
Al       9.05000000      17.15000000      13.10000000      -0.09333464       0.00610674      -0.42350184
Al       9.05000000      19.17500000      15.12500000      -0.04653574       0.04653574       0.68945635
Al      11.07500000      17.15000000      15.12500000      -0.02914038       0.02914038       0.70747185
Al      11.07500000      19.17500000      13.10000000      -0.00610674       0.09333464      -0.42350184
Al       9.05000000      21.20000000       5.00000000      -0.03801912      -0.33488959      -0.63756605
Al       9.05000000      23.22500000       7.02500000      -0.03610348       0.60065610       0.26269036
Al      11.07500000      21.20000000       7.02500000      -0.01242040      -0.05873272       0.54383054
Al      11.07500000      23.22500000       5.00000000      -0.01685925       0.20481784      -0.17794901
Al       9.05818763      21.22918911       9.06711055      -0.00266879      -0.01081974       0.05225449
Al       9.04384792      23.41678427      11.10161376      -0.00126812      -0.01404710      -0.02975386
Al      11.06759385      21.26044506      11.05493767      -0.00125875       0.00134514      -0.03821854
Al      11.06382391      23.41890808       9.04363478      -0.00245246       0.00904453       0.01353759
Al       9.05000000      21.20000000      13.10000000      -0.05021312      -0.07885181      -0.56288461
Al       9.05000000      23.22500000      15.12500000      -0.03855139       0.21474958       0.15739416
Al      11.07500000      21.20000000      15.12500000      -0.01782958      -0.31453827       0.62551190
Al      11.07500000      23.22500000      13.10000000      -0.01344451       0.63928204      -0.22722811
Al      13.10000000       5.00000000       5.00000000      -0.00482294      -0.20648913      -0.17899060
Al      13.10000000       7.02500000       7.02500000      -0.00610222       0.00353552       0.51875914
Al      15.12500000       5.00000000       7.02500000       0.01765388      -0.64476854       0.27391801
Al      15.12500000       7.02500000       5.00000000       0.00628978       0.33414368      -0.64148448
Al      13.09688368       4.80471072       9.04349579      -0.00066018      -0.01133013       0.01409020
Al      13.09696654       6.96259946      11.05394244       0.00034799      -0.00256610      -0.03577619
Al      15.12805384       4.78933194      11.09522821       0.00235802       0.00973118      -0.02900184
Al      15.12911776       6.95872187       9.06967854       0.00279143       0.00775919       0.05435873
Al      13.10000000       5.00000000      13.10000000      -0.01626016      -0.64292755      -0.25549483
Al      13.10000000       7.02500000      15.12500000      -0.00479879       0.31387633       0.62677710
Al      15.12500000       5.00000000      15.12500000       0.00601203      -0.22312213       0.15950126
Al      15.12500000       7.02500000      13.10000000       0.00728303       0.00318060      -0.54909437
Al      13.10000000       9.05000000       5.00000000      -0.00581002      -0.04228725      -0.70322104
Al      13.10000000      11.07500000       7.02500000      -0.01297152       0.05665865       0.38307570
Al      15.12500000       9.05000000       7.02500000       0.00832219      -0.12382530       0.37698676
Al      15.12500000      11.07500000       5.00000000       0.00785764      -0.02186741      -0.70820858
Al      13.09884635       9.02204746       9.04504703      -0.00148168      -0.00842197       0.06370273
Al      13.09952361      11.04591637      11.07362089       0.00128455      -0.00094135      -0.02796954
Al      15.12872463       9.02297708      11.06864835       0.00370935      -0.00562187      -0.03382350
Al      15.11321577      11.08356753       9.05489106       0.00684015      -0.00764668       0.06831222
Al      13.10000000       9.05000000      13.10000000      -0.00469470      -0.17840627      -0.36227812
Al      13.10000000      11.07500000      15.12500000      -0.00556321      -0.01888425       0.68470734
Al      15.12500000       9.05000000      15.12500000       0.00566371      -0.04868939       0.68825461
Al      15.12500000      11.07500000      13.10000000      -0.00165881      -0.01227149      -0.37196431
Al      13.10000000      13.10000000       5.00000000      -0.00680960      -0.00516870      -0.71326692
Al      13.10000000      15.12500000       7.02500000      -0.01600814       0.01600814       0.04649202
Al      15.12500000      13.10000000       7.02500000      -0.04240614       0.04240614       0.32467419
Al      15.12500000      15.12500000       5.00000000       0.00516870       0.00680960      -0.71326692
Al      13.09805135      13.14493037       9.08735035      -0.00174520      -0.02065474       0.04916636
Al      15.05715569      13.16784431      11.09113427      -0.00184554       0.00184554      -0.02944494
Al      15.08006963      15.12694865       9.08735035       0.02065474       0.00174520       0.04916636
Al      13.10000000      13.10000000      13.10000000      -0.01806823       0.38507245      -0.49840952
Al      13.10000000      15.12500000      15.12500000      -0.00568152       0.00568152       0.84582100
Al      15.12500000      13.10000000      15.12500000       0.01545516      -0.01545516       0.70614417
Al      15.12500000      15.12500000      13.10000000      -0.38507245       0.01806823      -0.49840952
Al      13.10000000      17.15000000       5.00000000      -0.00672396       0.01876312      -0.71135076
Al      13.10000000      19.17500000       7.02500000      -0.00814794       0.04480911       0.45116407
Al      15.12500000      17.15000000       7.02500000      -0.04492094      -0.00316773       0.33630692
Al      15.12500000      19.17500000       5.00000000       0.00698478       0.04163076      -0.70700136
Al      13.09909667      17.11303832       9.08628305      -0.00285891       0.02155678       0.04525310
Al      13.09885314      19.21811493      11.07273632      -0.00041473       0.00909625      -0.02991846
Al      15.05653455      17.08901805      11.09049378      -0.00155363      -0.00473798      -0.02985632
Al      15.11393964      19.18322605       9.05587284       0.00505787       0.01009198       0.06481939
Al      13.10000000      17.15000000      13.10000000      -0.01103555      -0.35772831      -0.50835498
Al      13.10000000      19.17500000      15.12500000      -0.00561026       0.04741965       0.68636074
Al      15.12500000      17.15000000      15.12500000       0.01532257       0.02923912       0.70709958
Al      15.12500000      19.17500000      13.10000000      -0.00879639       0.10703391      -0.42651511
Al      13.10000000      21.20000000       5.00000000      -0.00587776      -0.33400716      -0.64274117
Al      13.10000000      23.22500000       7.02500000      -0.01741170       0.65070431       0.26897169
Al      15.12500000      21.20000000       7.02500000       0.00523355      -0.04632287       0.55612858
Al      15.12500000      23.22500000       5.00000000       0.00526461       0.20714005      -0.17919796
Al      13.09686545      21.26783840       9.06806368      -0.00173911      -0.00837301       0.05414041
Al      13.09691373      23.43555852      11.09484305      -0.00103151      -0.00892643      -0.02869565
Al      15.13017462      21.26655668      11.05316051       0.00202513       0.00152451      -0.03640909
Al      15.12879418      23.42275144       9.04274904       0.00143815       0.01186066       0.01391008
Al      13.10000000      21.20000000      13.10000000      -0.00614810       0.02566327      -0.52266731
Al      13.10000000      23.22500000      15.12500000      -0.00545035       0.22323687       0.15987897
Al      15.12500000      21.20000000      15.12500000       0.00485511      -0.31446429       0.62644855
Al      15.12500000      23.22500000      13.10000000       0.01614252       0.64741932      -0.25122570
Al      17.15000000       5.00000000       5.00000000       0.01737652      -0.20413125      -0.17738525
Al      17.15000000       7.02500000       7.02500000       0.01333997       0.03513488       0.52219660
Al      19.17500000       5.00000000       7.02500000       0.03686921      -0.60699864       0.25959913
Al      19.17500000       7.02500000       5.00000000       0.03815489       0.33488911      -0.63605293
Al      17.16064700       4.80687251       9.04406760       0.00359081      -0.00790856       0.01415399
Al      17.15592810       6.96752160      11.05539508       0.00178151      -0.00229591      -0.03760610
Al      19.18080303       4.80910868      11.10153823       0.00178020       0.01537618      -0.03017997
Al      19.16991081       6.99135520       9.06626068       0.00522627       0.00751392       0.05175468
Al      17.15000000       5.00000000      13.10000000       0.01498870      -0.63600541      -0.23067271
Al      17.15000000       7.02500000      15.12500000       0.01878259       0.31372933       0.62563694
Al      19.17500000       5.00000000      15.12500000       0.03881264      -0.21422817       0.15677848
Al      19.17500000       7.02500000      13.10000000       0.05586515       0.06360082      -0.55360281
Al      17.15000000       9.05000000       5.00000000       0.01983154      -0.04131393      -0.70130804
Al      17.15000000      11.07500000       7.02500000       0.01211189      -0.01211189       0.32825834
Al      19.17500000       9.05000000       7.02500000       0.10043420      -0.10043420       0.40720090
Al      19.17500000      11.07500000       5.00000000       0.04131393      -0.01983154      -0.70130804
Al      17.14541878       9.04044436       9.04859551       0.00590771      -0.00747902       0.06347933
Al      17.13119905      11.09380095      11.07108690      -0.00373981       0.00373981      -0.03455970
Al      19.16907399       9.05592601      11.07009639       0.00202522      -0.00202522      -0.03798935
Al      19.18455564      11.07958122       9.04859551       0.00747902      -0.00590771       0.06347933
Al      17.15000000       9.05000000      13.10000000       0.01544262      -0.10817336      -0.40661529
Al      17.15000000      11.07500000      15.12500000       0.01966736      -0.01966736       0.68878773
Al      19.17500000       9.05000000      15.12500000       0.04765054      -0.04765054       0.68866361
Al      19.17500000      11.07500000      13.10000000       0.10817336      -0.01544262      -0.40661529
Al      17.15000000      13.10000000       5.00000000       0.02186741      -0.00785764      -0.70820858
Al      17.15000000      15.12500000       7.02500000      -0.05665865       0.01297152       0.38307570
Al      19.17500000      13.10000000       7.02500000       0.12382530      -0.00832219       0.37698676
Al      19.17500000      15.12500000       5.00000000       0.04228725       0.00581002      -0.70322104
Al      17.14143247      13.11178423       9.05489106       0.00764668      -0.00684015       0.06831222
Al      17.17908363      15.12547639      11.07362089       0.00094135      -0.00128455      -0.02796954
Al      19.20202292      13.09627537      11.06864835       0.00562187      -0.00370935      -0.03382350
Al      19.20295254      15.12615365       9.04504703       0.00842197       0.00148168       0.06370273
Al      17.15000000      13.10000000      13.10000000       0.01227149       0.00165881      -0.37196431
Al      17.15000000      15.12500000      15.12500000       0.01888425       0.00556321       0.68470734
Al      19.17500000      13.10000000      15.12500000       0.04868939      -0.00566371       0.68825461
Al      19.17500000      15.12500000      13.10000000       0.17840627       0.00469470      -0.36227812
Al      17.15000000      17.15000000       5.00000000       0.02089023       0.02056711      -0.70634659
Al      17.15000000      19.17500000       7.02500000      -0.00774386       0.10824268       0.38686639
Al      19.17500000      17.15000000       7.02500000       0.10801585       0.02537076       0.37670582
Al      19.17500000      19.17500000       5.00000000       0.03886757       0.03843863      -0.69946084
Al      17.13670836      17.14139588       9.05555219       0.00786467       0.00817721       0.06420908
Al      17.12820744      19.16778036      11.07112083      -0.00356385       0.00146818      -0.03586124
Al      19.19417082      17.15351569      11.06888718       0.00441619       0.00039049      -0.03538288
Al      19.17032817      19.17244996       9.04896252       0.00737152       0.00798761       0.06153040
Al      17.15000000      17.15000000      13.10000000       0.00096898       0.02473978      -0.37803275
Al      17.15000000      19.17500000      15.12500000       0.01854368       0.04762401       0.69006152
Al      19.17500000      17.15000000      15.12500000       0.04799383       0.01829987       0.68822535
Al      19.17500000      19.17500000      13.10000000       0.07679489       0.09549057      -0.43825275
Al      17.15000000      21.20000000       5.00000000       0.01765309      -0.33492017      -0.64108340
Al      17.15000000      23.22500000       7.02500000       0.01778599       0.62405684       0.26450098
Al      19.17500000      21.20000000       7.02500000       0.05498537      -0.07797267       0.54442326
Al      19.17500000      23.22500000       5.00000000       0.03442962       0.19927170      -0.17552496
Al      17.14919550      21.25125460       9.06907880       0.00230635      -0.01042497       0.05366448
Al      17.16029129      23.43364419      11.09380532       0.00181788      -0.01032996      -0.02975935
Al      19.16162062      21.22652294      11.05929430       0.00247093      -0.00405013      -0.03927978
Al      19.18016083      23.39360347       9.03717381       0.00590340       0.00447749       0.01452209
Al      17.15000000      21.20000000      13.10000000      -0.00063638      -0.04258213      -0.55144138
Al      17.15000000      23.22500000      15.12500000       0.01773359       0.22185349       0.15985891
Al      19.17500000      21.20000000      15.12500000       0.04534631      -0.31452394       0.62515551
Al      19.17500000      23.22500000      13.10000000       0.01165222       0.60420712      -0.21046825
Al      21.20000000       5.00000000       5.00000000      -0.45834711      -0.09626581      -0.08539802
Al      21.20000000       7.02500000       7.02500000      -0.14806947       0.14806947       0.66874392
Al      23.22500000       5.00000000       7.02500000       0.04373787      -0.04373787       0.54534610
Al      23.22500000       7.02500000       5.00000000       0.09626581       0.45834711      -0.08539802
Al      21.18004141       4.88472787       9.05805151      -0.00424414       0.00207102       0.01109706
Al      21.19822665       7.02677335      11.04779995      -0.00335307       0.00335307      -0.03646419
Al      23.25990298       4.96509702      11.08225149      -0.01121643       0.01121643      -0.03101213
Al      23.34027213       7.04495859       9.05805151      -0.00207102       0.00424414       0.01109706
Al      21.20000000       5.00000000      13.10000000      -0.23223525      -0.51208318      -0.37382310
Al      21.20000000       7.02500000      15.12500000      -0.31418118       0.31418118       0.56761055
Al      23.22500000       5.00000000      15.12500000      -0.31924133       0.31924133      -0.34766419
Al      23.22500000       7.02500000      13.10000000       0.51208318       0.23223525      -0.37382310
Al      21.20000000       9.05000000       5.00000000      -0.33488911      -0.03815489      -0.63605293
Al      21.20000000      11.07500000       7.02500000      -0.03513488      -0.01333997       0.52219660
Al      23.22500000       9.05000000       7.02500000       0.60699864      -0.03686921       0.25959913
Al      23.22500000      11.07500000       5.00000000       0.20413125      -0.01737652      -0.17738525
Al      21.23364480       9.05508919       9.06626068      -0.00751392      -0.00522627       0.05175468
Al      21.25747840      11.06907190      11.05539508       0.00229591      -0.00178151      -0.03760610
Al      23.41589132       9.04419697      11.10153823      -0.01537618      -0.00178020      -0.03017997
Al      23.41812749      11.06435300       9.04406760       0.00790856      -0.00359081       0.01415399
Al      21.20000000       9.05000000      13.10000000      -0.06360082      -0.05586515      -0.55360281
Al      21.20000000      11.07500000      15.12500000      -0.31372933      -0.01878259       0.62563694
Al      23.22500000       9.05000000      15.12500000       0.21422817      -0.03881264       0.15677848
Al      23.22500000      11.07500000      13.10000000       0.63600541      -0.01498870      -0.23067271
Al      21.20000000      13.10000000       5.00000000      -0.33414368      -0.00628978      -0.64148448
Al      21.20000000      15.12500000       7.02500000      -0.00353552       0.00610222       0.51875914
Al      23.22500000      13.10000000       7.02500000       0.64476854      -0.01765388       0.27391801
Al      23.22500000      15.12500000       5.00000000       0.20648913       0.00482294      -0.17899060
Al      21.26627813      13.09588224       9.06967854      -0.00775919      -0.00279143       0.05435873
Al      21.26240054      15.12803346      11.05394244       0.00256610      -0.00034799      -0.03577619
Al      23.43566806      13.09694616      11.09522821      -0.00973118      -0.00235802      -0.02900184
Al      23.42028928      15.12811632       9.04349579       0.01133013       0.00066018       0.01409020
Al      21.20000000      13.10000000      13.10000000      -0.00318060      -0.00728303      -0.54909437
Al      21.20000000      15.12500000      15.12500000      -0.31387633       0.00479879       0.62677710
Al      23.22500000      13.10000000      15.12500000       0.22312213      -0.00601203       0.15950126
Al      23.22500000      15.12500000      13.10000000       0.64292755       0.01626016      -0.25549483
Al      21.20000000      17.15000000       5.00000000      -0.33486456       0.01666964      -0.63962994
Al      21.20000000      19.17500000       7.02500000      -0.07561382       0.06354325       0.54325320
Al      23.22500000      17.15000000       7.02500000       0.63703256       0.01707002       0.25507579
Al      23.22500000      19.17500000       5.00000000       0.19960447       0.03399609      -0.17456337
Al      21.25972942      17.15641082       9.06780948      -0.00809951       0.00233941       0.05222645
Al      21.23592667      19.17121555      11.05872016      -0.00090487       0.00447966      -0.03968792
Al      23.43229841      17.16003651      11.09398262      -0.01020102       0.00102301      -0.02997793
Al      23.40042482      19.18294995       9.03639142       0.00441597       0.00437712       0.01464954
Al      21.20000000      17.15000000      13.10000000      -0.01416017       0.00673060      -0.53045769