299
Lattice="28.224999999999998 0.0 0.0 0.0 28.224999999999998 0.0 0.0 0.0 20.125" Properties=species:S:1:pos:R:3:forces:R:3 energy=-16469.312198524494 pbc="T T T"
Al       5.00000000       5.00000000       5.00000000       0.32969546       0.32941709       0.34596615
Al       5.00000000       7.02500000       7.02500000      -0.48507352       0.24440647       0.37599117
Al       7.02500000       5.00000000       7.02500000       0.24123350      -0.48561909       0.37086291
Al       7.02500000       7.02500000       5.00000000       0.31276727       0.31310444      -0.55952565
Al       4.97756204       4.97726976       9.04870952      -0.01060803      -0.00978040       0.04842321
Al       4.88304419       7.04800453      11.07880857      -0.00821859      -0.00098583      -0.01191370
Al       7.04640299       4.87390774      11.07944591      -0.00376096      -0.00784120      -0.01259899
Al       7.02844643       7.02676804       9.08195919      -0.00855265      -0.00508794      -0.02151451
Al       5.00000000       5.00000000      13.10000000      -0.04349685      -0.03962810      -0.52155234
Al       5.00000000       7.02500000      15.12500000      -0.09663934       0.44916693       0.06488956
Al       7.02500000       5.00000000      15.12500000       0.44850608      -0.09746309       0.06389646
Al       7.02500000       7.02500000      13.10000000       0.14380608       0.14591010      -0.67493936
Al       5.00000000       9.05000000       5.00000000      -0.20490737      -0.04264686      -0.15321236
Al       5.00000000      11.07500000       7.02500000      -0.60792895      -0.01176888       0.24717425
Al       7.02500000       9.05000000       7.02500000       0.06606517      -0.05649955       0.56566491
Al       7.02500000      11.07500000       5.00000000       0.31387049      -0.01123697      -0.61649343
Al       4.82102103       9.04383188       9.02741876      -0.00638097       0.00113501       0.01886295
Al       4.79399321      11.06498492      11.09048106      -0.00505437       0.00187085      -0.01857779
Al       6.99728264       9.06179795      11.05737946      -0.00969456       0.00144871       0.02297723
Al       6.97200794      11.07628891       9.07158074      -0.01076080       0.00187333      -0.01644878
Al       5.00000000       9.05000000      13.10000000      -0.58341518      -0.03202724      -0.23865418
Al       5.00000000      11.07500000      15.12500000      -0.20985003      -0.01014897       0.15294754
Al       7.02500000       9.05000000      15.12500000       0.31528970      -0.04758902       0.61368700
Al       7.02500000      11.07500000      13.10000000       0.03858086       0.00755803      -0.56166227
Al       5.00000000      13.10000000       5.00000000      -0.21347124       0.00203321      -0.15279807
Al       5.00000000      15.12500000       7.02500000      -0.63490094       0.01244327       0.24484583
Al       7.02500000      13.10000000       7.02500000       0.02872490       0.00271593       0.58320613
Al       7.02500000      15.12500000       5.00000000       0.31277133      -0.00020906      -0.61679441
Al       4.78654357      13.09706320       9.03092760      -0.00553328       0.00091254       0.02224346
Al       4.78863828      15.12744736      11.09218246      -0.00350889      -0.00103680      -0.01711663
Al       6.95326311      13.09545768      11.05087741      -0.01109633       0.00295380       0.02500164
Al       6.95471461      15.12730977       9.07027590      -0.01158467      -0.00062477      -0.01766466
Al       5.00000000      13.10000000      13.10000000      -0.62803875      -0.00981438      -0.25077483
Al       5.00000000      15.12500000      15.12500000      -0.21111113      -0.00072645       0.15213952
Al       7.02500000      13.10000000      15.12500000       0.31503592       0.00253174       0.61419209
Al       7.02500000      15.12500000      13.10000000      -0.03418430      -0.00006356      -0.52732171
Al       5.00000000      17.15000000       5.00000000      -0.21113722       0.01150594      -0.15311888
Al       5.00000000      19.17500000       7.02500000      -0.58465303       0.03472822       0.23354190
Al       7.02500000      17.15000000       7.02500000       0.04206044       0.00261842       0.57002272
Al       7.02500000      19.17500000       5.00000000       0.31492047       0.04943243      -0.61415947
Al       4.79269870      17.16046056       9.03283189      -0.00581947      -0.00070470       0.02306466
Al       4.81309409      19.18389726      11.09790455      -0.00328470      -0.00152390      -0.01608252
Al       6.95995867      17.15689194      11.05269945      -0.00736027      -0.00152782       0.02304198
Al       6.99460153      19.16690174       9.06855189      -0.00598255       0.00014813      -0.01472579
Al       5.00000000      17.15000000      13.10000000      -0.62009565       0.01109406      -0.23610177
Al       5.00000000      19.17500000      15.12500000      -0.20311436       0.04267632       0.15106171
Al       7.02500000      17.15000000      15.12500000       0.31638330       0.01135289       0.61300969
Al       7.02500000      19.17500000      13.10000000       0.07918293       0.05596310      -0.57407969
Al       5.00000000      21.20000000       5.00000000      -0.09676350      -0.44845707      -0.06419254
Al       5.00000000      23.22500000       7.02500000      -0.04058582       0.04058582       0.52413742
Al       7.02500000      21.20000000       7.02500000       0.14938656      -0.14938656       0.67173384
Al       7.02500000      23.22500000       5.00000000       0.44845707       0.09676350      -0.06419254
Al       4.88157261      21.17663635       9.04540907      -0.00631262       0.00173711       0.01525920
Al       4.98108549      23.24391451      11.07477646      -0.00834078       0.00834078      -0.04621375
Al       7.03388292      21.19111708      11.04414982      -0.00428350       0.00428350       0.02442023
Al       7.04836365      23.34342739       9.04540907      -0.00173711       0.00631262       0.01525920
Al       5.00000000      21.20000000      13.10000000      -0.47596185      -0.24421571      -0.37323103
Al       5.00000000      23.22500000      15.12500000       0.33164987      -0.33164987      -0.34575113
Al       7.02500000      21.20000000      15.12500000       0.31421411      -0.31421411       0.55813360
Al       7.02500000      23.22500000      13.10000000       0.24421571       0.47596185      -0.37323103
Al       9.05000000       5.00000000       5.00000000      -0.04316603      -0.20575521      -0.15245815
Al       9.05000000       7.02500000       7.02500000      -0.06393081       0.06269737       0.56310322
Al      11.07500000       5.00000000       7.02500000      -0.01034074      -0.62194247       0.23390659
Al      11.07500000       7.02500000       5.00000000      -0.01170176       0.31404250      -0.61589014
Al       9.04239722       4.81321218       9.02631917      -0.00182125      -0.00762231       0.01819655
Al       9.05255183       6.98599132      11.05661765      -0.00334652      -0.00649562       0.02267492
Al      11.06597105       4.79521439      11.09103394      -0.00092022      -0.00846462      -0.01858499
Al      11.07011265       6.96338572       9.07029708      -0.00199893      -0.01132532      -0.01958773
Al       9.05000000       5.00000000      13.10000000      -0.03360872      -0.59652283      -0.22609056
Al       9.05000000       7.02500000      15.12500000      -0.04900724       0.31602580       0.61333720
Al      11.07500000       5.00000000      15.12500000      -0.01157365      -0.21080070       0.15384142
Al      11.07500000       7.02500000      13.10000000      -0.00259397       0.00827893      -0.53639299
Al       9.05000000       9.05000000       5.00000000      -0.05101469      -0.05015425      -0.67760002
Al       9.05000000      11.07500000       7.02500000      -0.11625145       0.01436715       0.43012222
Al      11.07500000       9.05000000       7.02500000      -0.01802381      -0.11544132       0.41967956
Al      11.07500000      11.07500000       5.00000000      -0.01637684      -0.01509017      -0.68093871
Al       9.05257170       9.05375880       9.05444013      -0.00776780      -0.00136413      -0.01385415
Al       9.05700875      11.09894227      11.07308197      -0.01108416      -0.00063219       0.02365036
Al      11.07276777       9.02825543      11.07098674      -0.00555143      -0.00394302       0.02234231
Al      11.08352446      11.08767321       9.06232114      -0.00438541       0.00509851      -0.01667788
Al       9.05000000       9.05000000      13.10000000      -0.10773914      -0.08814249      -0.45175247
Al       9.05000000      11.07500000      15.12500000      -0.05211201      -0.01132657       0.67678080
Al      11.07500000       9.05000000      15.12500000      -0.01399076      -0.05072864       0.67540090
Al      11.07500000      11.07500000      13.10000000      -0.02238297       0.01203753      -0.38078711
Al       9.05000000      13.10000000       5.00000000      -0.05476828       0.00050111      -0.68155136
Al       9.05000000      15.12500000       7.02500000      -0.06561574       0.00222455       0.48434989
Al      11.07500000      13.10000000       7.02500000      -0.00124503       0.04193106       0.37051991
Al      11.07500000      15.12500000       5.00000000      -0.01502267       0.00132127      -0.68204665
Al       9.04059579      13.11122927       9.06128138      -0.00534859       0.00459628      -0.01272000
Al       9.00461513      15.12534379      11.07461349      -0.00709647       0.00190552       0.02164682
Al      11.14048237      13.17423626      11.09007199      -0.01261705      -0.00159701       0.03201720
Al      11.10749246      15.12576483       9.08521700       0.01251738       0.00260324      -0.00350696
Al       9.05000000      13.10000000      13.10000000      -0.11687320       0.01899370      -0.43256367
Al       9.05000000      15.12500000      15.12500000      -0.05101331       0.00075021       0.67273188
Al      11.07500000      13.10000000      15.12500000      -0.02556119      -0.00739285       0.69518745
Al      11.07500000      15.12500000      13.10000000       0.35322156       0.01066189      -0.48693778
Al       9.05000000      17.15000000       5.00000000      -0.05348980       0.01496377      -0.68021734
Al       9.05000000      19.17500000       7.02500000      -0.08433250       0.08433250       0.46797986
Al      11.07500000      17.15000000       7.02500000       0.00750556      -0.00750556       0.38032588
Al      11.07500000      19.17500000       5.00000000      -0.01496377       0.05348980      -0.68021734
Al       9.04806412      17.13922779       9.06157489      -0.00132202       0.00043327      -0.01125112
Al       9.07063648      19.15436352      11.07350065      -0.00391144       0.00391144       0.02067398
Al      11.14524006      17.07975994      11.08897889      -0.01061270       0.01061270       0.03222249
Al      11.08577221      19.17693588       9.06157489      -0.00043327       0.00132202      -0.01125112
Al       9.05000000      17.15000000      13.10000000      -0.10111917       0.00024121      -0.43514842
Al       9.05000000      19.17500000      15.12500000      -0.04896609       0.04896609       0.67529736
Al      11.07500000      17.15000000      15.12500000      -0.02435518       0.02435518       0.69401822
Al      11.07500000      19.17500000      13.10000000      -0.00024121       0.10111917      -0.43514842
Al       9.05000000      21.20000000       5.00000000      -0.04943243      -0.31492047      -0.61415947
Al       9.05000000      23.22500000       7.02500000      -0.03472822       0.58465303       0.23354190
Al      11.07500000      21.20000000       7.02500000      -0.00261842      -0.04206044       0.57002272
Al      11.07500000      23.22500000       5.00000000      -0.01150594       0.21113722      -0.15311888
Al       9.05809826      21.23039847       9.06855189      -0.00014813       0.00598255      -0.01472579
Al       9.04110274      23.41190591      11.09790455       0.00152390       0.00328470      -0.01608252
Al      11.06810806      21.26504133      11.05269945       0.00152782       0.00736027       0.02304198
Al      11.06453944      23.43230130       9.03283189       0.00070470       0.00581947       0.02306466
Al       9.05000000      21.20000000      13.10000000      -0.05596310      -0.07918293      -0.57407969
Al       9.05000000      23.22500000      15.12500000      -0.04267632       0.20311436       0.15106171
Al      11.07500000      21.20000000      15.12500000      -0.01135289      -0.31638330       0.61300969
Al      11.07500000      23.22500000      13.10000000      -0.01109406       0.62009565      -0.23610177
Al      13.10000000       5.00000000       5.00000000       0.00127071      -0.21369973      -0.15359225
Al      13.10000000       7.02500000       7.02500000       0.00062147      -0.01132113       0.54485230
Al      15.12500000       5.00000000       7.02500000       0.01066179      -0.62965857       0.24831148
Al      15.12500000       7.02500000       5.00000000      -0.00079463       0.31298365      -0.61662402
Al      13.09762840       4.78918797       9.03189064       0.00134624      -0.00884335       0.01963710
Al      13.09782961       6.95784306      11.05195534       0.00091975      -0.01325221       0.02449322
Al      15.12670303       4.78926967      11.09296240       0.00098979      -0.00793917      -0.01865197
Al      15.12758164       6.95663979       9.07193316       0.00235295      -0.01460945      -0.02130722
Al      13.10000000       5.00000000      13.10000000      -0.01211843      -0.62517758      -0.25107496
Al      13.10000000       7.02500000      15.12500000       0.00031227       0.31415303       0.61617745
Al      15.12500000       5.00000000      15.12500000      -0.00180590      -0.21304145       0.15346292
Al      15.12500000       7.02500000      13.10000000      -0.00212993      -0.00579275      -0.54831651
Al      13.10000000       9.05000000       5.00000000       0.00010253      -0.05447607      -0.67902172
Al      13.10000000      11.07500000       7.02500000      -0.00799254       0.05403994       0.42030336
Al      15.12500000       9.05000000       7.02500000       0.00041767      -0.13144013       0.41659199
Al      15.12500000      11.07500000       5.00000000       0.00093112      -0.01653207      -0.68172434
Al      13.09972172       9.02203374       9.05076544      -0.00058942      -0.00782867      -0.01817296
Al      13.10032220      11.04668187      11.07594212      -0.00266229       0.00081927       0.02427686
Al      15.12757998       9.02059110      11.07122546       0.00125182      -0.00782683       0.02126467
Al      15.11277082      11.08353586       9.06107322      -0.00221415       0.00202986      -0.01781592
Al      13.10000000       9.05000000      13.10000000      -0.00089236      -0.19505213      -0.35993443
Al      13.10000000      11.07500000      15.12500000      -0.00144042      -0.01206744       0.67326526
Al      15.12500000       9.05000000      15.12500000      -0.00147457      -0.05224965       0.67663806
Al      15.12500000      11.07500000      13.10000000      -0.01241287       0.00206791      -0.36519857
Al      13.10000000      13.10000000       5.00000000      -0.00138744       0.00182996      -0.68328109
Al      13.10000000      15.12500000       7.02500000      -0.01132771       0.01132771       0.07763880
Al      15.12500000      13.10000000       7.02500000      -0.04083766       0.04083766       0.35549801
Al      15.12500000      15.12500000       5.00000000      -0.00182996       0.00138744      -0.68328109
Al      13.09809616      13.14160844       9.08627888      -0.00391447       0.02149607      -0.00793814
Al      15.05039028      13.17460972      11.09079835       0.00332454      -0.00332454       0.03463924
Al      15.08339156      15.12690384       9.08627888      -0.02149607       0.00391447      -0.00793814
Al      13.10000000      13.10000000      13.10000000      -0.01817090       0.38887616      -0.46693318
Al      13.10000000      15.12500000      15.12500000      -0.00187901       0.00187901       0.83631189
Al      15.12500000      13.10000000      15.12500000       0.00787760      -0.00787760       0.69602464
Al      15.12500000      15.12500000      13.10000000      -0.38887616       0.01817090      -0.46693318
Al      13.10000000      17.15000000       5.00000000      -0.00132127       0.01502267      -0.68204665
Al      13.10000000      19.17500000       7.02500000      -0.00222455       0.06561574       0.48434989
Al      15.12500000      17.15000000       7.02500000      -0.04193106       0.00124503       0.37051991
Al      15.12500000      19.17500000       5.00000000      -0.00050111       0.05476828      -0.68155136
Al      13.09923517      17.11750754       9.08521700      -0.00260324      -0.01251738      -0.00350696
Al      13.09965621      19.22038487      11.07461349      -0.00190552       0.00709647       0.02164682
Al      15.05076374      17.08451763      11.09007199       0.00159701       0.01261705       0.03201720
Al      15.11377073      19.18440421       9.06128138      -0.00459628       0.00534859      -0.01272000
Al      13.10000000      17.15000000      13.10000000      -0.01066189      -0.35322156      -0.48693778
Al      13.10000000      19.17500000      15.12500000      -0.00075021       0.05101331       0.67273188
Al      15.12500000      17.15000000      15.12500000       0.00739285       0.02556119       0.69518745
Al      15.12500000      19.17500000      13.10000000      -0.01899370       0.11687320      -0.43256367
Al      13.10000000      21.20000000       5.00000000       0.00020906      -0.31277133      -0.61679441
Al      13.10000000      23.22500000       7.02500000      -0.01244327       0.63490094       0.24484583
Al      15.12500000      21.20000000       7.02500000      -0.00271593      -0.02872490       0.58320613
Al      15.12500000      23.22500000       5.00000000      -0.00203321       0.21347124      -0.15279807
Al      13.09769023      21.27028539       9.07027590       0.00062477       0.01158467      -0.01766466
Al      13.09755264      23.43636172      11.09218246       0.00103680       0.00350889      -0.01711663
Al      15.12954232      21.27173689      11.05087741      -0.00295380       0.01109633       0.02500164
Al      15.12793680      23.43845643       9.03092760      -0.00091254       0.00553328       0.02224346
Al      13.10000000      21.20000000      13.10000000       0.00006356       0.03418430      -0.52732171
Al      13.10000000      23.22500000      15.12500000       0.00072645       0.21111113       0.15213952
Al      15.12500000      21.20000000      15.12500000      -0.00253174      -0.31503592       0.61419209
Al      15.12500000      23.22500000      13.10000000       0.00981438       0.62803875      -0.25077483
Al      17.15000000       5.00000000       5.00000000       0.01136766      -0.21155178      -0.15376905
Al      17.15000000       7.02500000       7.02500000       0.00176195       0.02239202       0.55052506
Al      19.17500000       5.00000000       7.02500000       0.03396910      -0.59128885       0.23363500
Al      19.17500000       7.02500000       5.00000000       0.04917145       0.31478508      -0.61393864
Al      17.15887248       4.79414175       9.03371973       0.00297815      -0.00795794       0.02009915
Al      17.15423359       6.96376981      11.05358902       0.00335569      -0.01088259       0.02038627
Al      19.18237975       4.81453436      11.09816403       0.00196489      -0.00624160      -0.01842897
Al      19.16878800       6.99097555       9.06825296       0.00470143      -0.00918414      -0.02043758
Al      17.15000000       5.00000000      13.10000000       0.00906063      -0.61928964      -0.23767102
Al      17.15000000       7.02500000      15.12500000       0.01087116       0.31477636       0.61539444
Al      19.17500000       5.00000000      15.12500000       0.04242688      -0.20541775       0.15254300
Al      19.17500000       7.02500000      13.10000000       0.06006442       0.06460123      -0.56477372
Al      17.15000000       9.05000000       5.00000000       0.01436733      -0.05326971      -0.67819538
Al      17.15000000      11.07500000       7.02500000       0.00488409      -0.00488409       0.37468384
Al      19.17500000       9.05000000       7.02500000       0.10323736      -0.10323736       0.44564515
Al      19.17500000      11.07500000       5.00000000       0.05326971      -0.01436733      -0.67819538
Al      17.14385840       9.04050854       9.05480436       0.00698624      -0.00899253      -0.01687506
Al      17.12805576      11.09694424      11.07335037       0.00565498      -0.00565498       0.02485289
Al      19.16861122       9.05638878      11.07211777       0.00725007      -0.00725007       0.01686176
Al      19.18449146      11.08114160       9.05480436       0.00899253      -0.00698624      -0.01687506
Al      17.15000000       9.05000000      13.10000000       0.00892487      -0.12073500      -0.41076776
Al      17.15000000      11.07500000      15.12500000       0.01342893      -0.01342893       0.67734239
Al      19.17500000       9.05000000      15.12500000       0.04971693      -0.04971693       0.67678555
Al      19.17500000      11.07500000      13.10000000       0.12073500      -0.00892487      -0.41076776
Al      17.15000000      13.10000000       5.00000000       0.01653207      -0.00093112      -0.68172434
Al      17.15000000      15.12500000       7.02500000      -0.05403994       0.00799254       0.42030336
Al      19.17500000      13.10000000       7.02500000       0.13144013      -0.00041767       0.41659199
Al      19.17500000      15.12500000       5.00000000       0.05447607      -0.00010253      -0.67902172
Al      17.14146414      13.11222918       9.06107322      -0.00202986       0.00221415      -0.01781592
Al      17.17831813      15.12467780      11.07594212      -0.00081927       0.00266229       0.02427686
Al      19.20440890      13.09742002      11.07122546       0.00782683      -0.00125182       0.02126467
Al      19.20296626      15.12527828       9.05076544       0.00782867       0.00058942      -0.01817296
Al      17.15000000      13.10000000      13.10000000      -0.00206791       0.01241287      -0.36519857
Al      17.15000000      15.12500000      15.12500000       0.01206744       0.00144042       0.67326526
Al      19.17500000      13.10000000      15.12500000       0.05224965       0.00147457       0.67663806
Al      19.17500000      15.12500000      13.10000000       0.19505213       0.00089236      -0.35993443
Al      17.15000000      17.15000000       5.00000000       0.01509017       0.01637684      -0.68093871
Al      17.15000000      19.17500000       7.02500000      -0.01436715       0.11625145       0.43012222
Al      19.17500000      17.15000000       7.02500000       0.11544132       0.01802381       0.41967956
Al      19.17500000      19.17500000       5.00000000       0.05015425       0.05101469      -0.67760002
Al      17.13732679      17.14147554       9.06232114      -0.00509851       0.00438541      -0.01667788
Al      17.12605773      19.16799125      11.07308197       0.00063219       0.01108416       0.02365036
Al      19.19674457      17.15223223      11.07098674       0.00394302       0.00555143       0.02234231
Al      19.17124120      19.17242830       9.05444013       0.00136413       0.00776780      -0.01385415
Al      17.15000000      17.15000000      13.10000000      -0.01203753       0.02238297      -0.38078711
Al      17.15000000      19.17500000      15.12500000       0.01132657       0.05211201       0.67678080
Al      19.17500000      17.15000000      15.12500000       0.05072864       0.01399076       0.67540090
Al      19.17500000      19.17500000      13.10000000       0.08814249       0.10773914      -0.45175247
Al      17.15000000      21.20000000       5.00000000       0.01123697      -0.31387049      -0.61649343
Al      17.15000000      23.22500000       7.02500000       0.01176888       0.60792895       0.24717425
Al      19.17500000      21.20000000       7.02500000       0.05649955      -0.06606517       0.56566491
Al      19.17500000      23.22500000       5.00000000       0.04264686       0.20490737      -0.15321236
Al      17.14871109      21.25299206       9.07158074      -0.00187333       0.01076080      -0.01644878
Al      17.16001508      23.43100679      11.09048106      -0.00187085       0.00505437      -0.01857779
Al      19.16320205      21.22771736      11.05737946      -0.00144871       0.00969456       0.02297723
Al      19.18116812      23.40397897       9.02741876      -0.00113501       0.00638097       0.01886295
Al      17.15000000      21.20000000      13.10000000      -0.00755803      -0.03858086      -0.56166227
Al      17.15000000      23.22500000      15.12500000       0.01014897       0.20985003       0.15294754
Al      19.17500000      21.20000000      15.12500000       0.04758902      -0.31528970       0.61368700
Al      19.17500000      23.22500000      13.10000000       0.03202724       0.58341518      -0.23865418
Al      21.20000000       5.00000000       5.00000000      -0.44834897      -0.09769368      -0.06441015
Al      21.20000000       7.02500000       7.02500000      -0.14310535       0.14310535       0.67397498
Al      23.22500000       5.00000000       7.02500000       0.04226067      -0.04226067       0.52108286
Al      23.22500000       7.02500000       5.00000000       0.09769368       0.44834897      -0.06441015
Al      21.17813377       4.87810760       9.04593864       0.00313638      -0.00750488       0.01278979
Al      21.19655445       7.02844555      11.04354025       0.00678070      -0.00678070       0.02187487
Al      23.24750803       4.97749197      11.07663197       0.00978305      -0.00978305      -0.04889798
Al      23.34689240       7.04686623       9.04593864       0.00750488      -0.00313638       0.01278979
Al      21.20000000       5.00000000      13.10000000      -0.24325111      -0.48471625      -0.37256966
Al      21.20000000       7.02500000      15.12500000      -0.31343338       0.31343338       0.55952131
Al      23.22500000       5.00000000      15.12500000      -0.32924910       0.32924910      -0.34596695
Al      23.22500000       7.02500000      13.10000000       0.48471625       0.24325111      -0.37256966
Al      21.20000000       9.05000000       5.00000000      -0.31478508      -0.04917145      -0.61393864
Al      21.20000000      11.07500000       7.02500000      -0.02239202      -0.00176195       0.55052506
Al      23.22500000       9.05000000       7.02500000       0.59128885      -0.03396910       0.23363500
Al      23.22500000      11.07500000       5.00000000       0.21155178      -0.01136766      -0.15376905
Al      21.23402445       9.05621200       9.06825296       0.00918414      -0.00470143      -0.02043758
Al      21.26123019      11.07076641      11.05358902       0.01088259      -0.00335569       0.02038627
Al      23.41046564       9.04262025      11.09816403       0.00624160      -0.00196489      -0.01842897
Al      23.43085825      11.06612752       9.03371973       0.00795794      -0.00297815       0.02009915
Al      21.20000000       9.05000000      13.10000000      -0.06460123      -0.06006442      -0.56477372
Al      21.20000000      11.07500000      15.12500000      -0.31477636      -0.01087116       0.61539444
Al      23.22500000       9.05000000      15.12500000       0.20541775      -0.04242688       0.15254300
Al      23.22500000      11.07500000      13.10000000       0.61928964      -0.00906063      -0.23767102
Al      21.20000000      13.10000000       5.00000000      -0.31298365       0.00079463      -0.61662402
Al      21.20000000      15.12500000       7.02500000       0.01132113      -0.00062147       0.54485230
Al      23.22500000      13.10000000       7.02500000       0.62965857      -0.01066179       0.24831148
Al      23.22500000      15.12500000       5.00000000       0.21369973      -0.00127071      -0.15359225
Al      21.26836021      13.09741836       9.07193316       0.01460945      -0.00235295      -0.02130722
Al      21.26715694      15.12717039      11.05195534       0.01325221      -0.00091975       0.02449322
Al      23.43573033      13.09829697      11.09296240       0.00793917      -0.00098979      -0.01865197
Al      23.43581203      15.12737160       9.03189064       0.00884335      -0.00134624       0.01963710
Al      21.20000000      13.10000000      13.10000000       0.00579275       0.00212993      -0.54831651
Al      21.20000000      15.12500000      15.12500000      -0.31415303      -0.00031227       0.61617745
Al      23.22500000      13.10000000      15.12500000       0.21304145       0.00180590       0.15346292
Al      23.22500000      15.12500000      13.10000000       0.62517758       0.01211843      -0.25107496
Al      21.20000000      17.15000000       5.00000000      -0.31404250       0.01170176      -0.61589014
Al      21.20000000      19.17500000       7.02500000      -0.06269737       0.06393081       0.56310322
Al      23.22500000      17.15000000       7.02500000       0.62194247       0.01034074       0.23390659
Al      23.22500000      19.17500000       5.00000000       0.20575521       0.04316603      -0.15245815
Al      21.26161428      17.15488735       9.07029708       0.01132532       0.00199893      -0.01958773
Al      21.23900868      19.17244817      11.05661765       0.00649562       0.00334652       0.02267492
Al      23.42978561      17.15902895      11.09103394       0.00846462       0.00092022      -0.01858499
Al      23.41178782      19.18260278       9.02631917       0.00762231       0.00182125       0.01819655
Al      21.20000000      17.15000000      13.10000000      -0.00827893       0.00259397      -0.53639299