299
Lattice="28.224999999999998 0.0 0.0 0.0 28.224999999999998 0.0 0.0 0.0 20.125" Properties=species:S:1:pos:R:3:forces:R:3 energy=-16469.313056408853 pbc="T T T"
Al       5.00000000       5.00000000       5.00000000       0.32786439       0.32676865       0.33694706
Al       5.00000000       7.02500000       7.02500000      -0.48813065       0.24146907       0.38054385
Al       7.02500000       5.00000000       7.02500000       0.24009891      -0.48935332       0.37573541
Al       7.02500000       7.02500000       5.00000000       0.31776726       0.31648117      -0.57613900
Al       4.97721698       4.97686627       9.04975970      -0.01048070      -0.01144621       0.05342088
Al       4.88245715       7.04773145      11.07783607      -0.00902807      -0.00100280      -0.00452884
Al       7.04621035       4.87333252      11.07847475      -0.00161223      -0.00961125      -0.00544965
Al       7.02856573       7.02681020       9.08197860      -0.00943674      -0.00853147      -0.02092621
Al       5.00000000       5.00000000      13.10000000      -0.04562341      -0.04270609      -0.52418486
Al       5.00000000       7.02500000      15.12500000      -0.09840114       0.45045415       0.07517642
Al       7.02500000       5.00000000      15.12500000       0.45101080      -0.09975614       0.07376175
Al       7.02500000       7.02500000      13.10000000       0.14141012       0.14140223      -0.67993337
Al       5.00000000       9.05000000       5.00000000      -0.20665331      -0.04102769      -0.16532410
Al       5.00000000      11.07500000       7.02500000      -0.61110807      -0.01108438       0.24942929
Al       7.02500000       9.05000000       7.02500000       0.06458659      -0.05617119       0.56466389
Al       7.02500000      11.07500000       5.00000000       0.32032653      -0.01052425      -0.63628041
Al       4.82055516       9.04360992       9.02833786      -0.00997452       0.00114324       0.01243389
Al       4.79319353      11.06433079      11.08950714      -0.00668941       0.00590683      -0.01062097
Al       6.99734813       9.06162319      11.05766860      -0.01081729       0.00029900       0.02317883
Al       6.97213640      11.07556673       9.07146246      -0.01131288       0.00824460      -0.01613321
Al       5.00000000       9.05000000      13.10000000      -0.58583487      -0.03274297      -0.23999616
Al       5.00000000      11.07500000      15.12500000      -0.21005744      -0.00872053       0.16555325
Al       7.02500000       9.05000000      15.12500000       0.32264223      -0.04463583       0.63233775
Al       7.02500000      11.07500000      13.10000000       0.03858316       0.00976101      -0.56149358
Al       5.00000000      13.10000000       5.00000000      -0.21503631       0.00350829      -0.16543069
Al       5.00000000      15.12500000       7.02500000      -0.63614466       0.01504140       0.25083322
Al       7.02500000      13.10000000       7.02500000       0.02802752       0.00504851       0.58855463
Al       7.02500000      15.12500000       5.00000000       0.31890707       0.00222886      -0.63556756
Al       4.78540021      13.09665009       9.03190927      -0.00498152       0.00517582       0.01661694
Al       4.78736026      15.12791963      11.09106618      -0.00066711      -0.00028491      -0.00995372
Al       6.95368475      13.09498047      11.05054998      -0.01345145       0.00942640       0.02880981
Al       6.95511745      15.12769261       9.07035546      -0.01482818      -0.00027388      -0.01714226
Al       5.00000000      13.10000000      13.10000000      -0.62849243      -0.00747330      -0.25578960
Al       5.00000000      15.12500000      15.12500000      -0.21054370       0.00136991       0.16388676
Al       7.02500000      13.10000000      15.12500000       0.32252535       0.00429684       0.63344320
Al       7.02500000      15.12500000      13.10000000      -0.03376068       0.00256767      -0.53274360
Al       5.00000000      17.15000000       5.00000000      -0.21102851       0.01329495      -0.16385002
Al       5.00000000      19.17500000       7.02500000      -0.58501773       0.03731942       0.23629586
Al       7.02500000      17.15000000       7.02500000       0.03981439       0.00488175       0.57211449
Al       7.02500000      19.17500000       5.00000000       0.32020216       0.04870742      -0.62975314
Al       4.79197321      17.16119454       9.03373563      -0.00496415      -0.00114400       0.01710769
Al       4.81258874      19.18424114      11.09686501      -0.00146498      -0.00033073      -0.00854140
Al       6.95990670      17.15762258      11.05262406      -0.00688200      -0.00358447       0.02528570
Al       6.99450315      19.16720081       9.06818032      -0.00772960       0.00250507      -0.01151723
Al       5.00000000      17.15000000      13.10000000      -0.61960800       0.01386569      -0.23890410
Al       5.00000000      19.17500000      15.12500000      -0.20129472       0.04166426       0.16029628
Al       7.02500000      17.15000000      15.12500000       0.32352061       0.01345027       0.62993565
Al       7.02500000      19.17500000      13.10000000       0.07759744       0.05667942      -0.57423202
Al       5.00000000      21.20000000       5.00000000      -0.09680029      -0.45004736      -0.07181774
Al       5.00000000      23.22500000       7.02500000      -0.04089816       0.04089816       0.52729401
Al       7.02500000      21.20000000       7.02500000       0.14524045      -0.14524045       0.67801557
Al       7.02500000      23.22500000       5.00000000       0.45004736       0.09680029      -0.07181774
Al       4.88112732      21.17695300       9.04631571      -0.00373957       0.00032759       0.00977206
Al       4.98073239      23.24426761      11.07362614      -0.00509606       0.00509606      -0.05013324
Al       7.03388485      21.19111515      11.04401683      -0.00578062       0.00578062       0.02614264
Al       7.04804700      23.34387268       9.04631571      -0.00032759       0.00373957       0.00977206
Al       5.00000000      21.20000000      13.10000000      -0.47479338      -0.24272823      -0.37903315
Al       5.00000000      23.22500000      15.12500000       0.33197851      -0.33197851      -0.33867868
Al       7.02500000      21.20000000      15.12500000       0.31961858      -0.31961858       0.57110459
Al       7.02500000      23.22500000      13.10000000       0.24272823       0.47479338      -0.37903315
Al       9.05000000       5.00000000       5.00000000      -0.04015840      -0.20727522      -0.16364401
Al       9.05000000       7.02500000       7.02500000      -0.06066666       0.05937365       0.56243352
Al      11.07500000       5.00000000       7.02500000      -0.00882616      -0.62362730       0.23689707
Al      11.07500000       7.02500000       5.00000000      -0.00934782       0.31994963      -0.63406380
Al       9.04224977       4.81284466       9.02728944       0.00018518      -0.01053735       0.01218478
Al       9.05252694       6.98599553      11.05696095      -0.00218978      -0.00957571       0.02204393
Al      11.06528953       4.79461940      11.09011658       0.00414770      -0.00805225      -0.01161104
Al      11.06947996       6.96346555       9.07021448       0.00630921      -0.01250143      -0.01885449
Al       9.05000000       5.00000000      13.10000000      -0.03300202      -0.59875208      -0.22795265
Al       9.05000000       7.02500000      15.12500000      -0.04438217       0.32216223       0.63117773
Al      11.07500000       5.00000000      15.12500000      -0.00989058      -0.21029180       0.16513541
Al      11.07500000       7.02500000      13.10000000       0.00095203       0.00732323      -0.53658629
Al       9.05000000       9.05000000       5.00000000      -0.04589408      -0.04749341      -0.69805714
Al       9.05000000      11.07500000       7.02500000      -0.11098788       0.01642401       0.42579941
Al      11.07500000       9.05000000       7.02500000      -0.01283597      -0.11313307       0.41564424
Al      11.07500000      11.07500000       5.00000000      -0.01252712      -0.01391710      -0.70174967
Al       9.05257568       9.05362463       9.05390767      -0.00427840      -0.00140530      -0.00884377
Al       9.05711833      11.09849714      11.07350594      -0.00672842       0.00463361       0.02320193
Al      11.07245045       9.02817141      11.07146398       0.00192623      -0.00192567       0.02072398
Al      11.08299710      11.08705870       9.06193177       0.00741269       0.01255556      -0.01390360
Al       9.05000000       9.05000000      13.10000000      -0.10272844      -0.08585472      -0.44409554
Al       9.05000000      11.07500000      15.12500000      -0.04653141      -0.01013483       0.69754014
Al      11.07500000       9.05000000      15.12500000      -0.01090217      -0.04675440       0.69530766
Al      11.07500000      11.07500000      13.10000000      -0.01564652       0.01632784      -0.37799585
Al       9.05000000      13.10000000       5.00000000      -0.04937780       0.00183193      -0.70253872
Al       9.05000000      15.12500000       7.02500000      -0.06109239       0.00297257       0.48406142
Al      11.07500000      13.10000000       7.02500000       0.00454917       0.04290357       0.37203417
Al      11.07500000      15.12500000       5.00000000      -0.01241341       0.00119064      -0.70230666
Al       9.04090424      13.11088430       9.06099817      -0.00224137       0.00879656      -0.01081614
Al       9.00495360      15.12541118      11.07463076      -0.00488930       0.00400857       0.02495036
Al      11.13972106      13.17392923      11.09031373       0.00001595       0.00053771       0.03499846
Al      11.10719749      15.12585123       9.08506725       0.02081511       0.00164802      -0.00139194
Al       9.05000000      13.10000000      13.10000000      -0.11037018       0.02231674      -0.43084179
Al       9.05000000      15.12500000      15.12500000      -0.04608158       0.00246730       0.69207529
Al      11.07500000      13.10000000      15.12500000      -0.02131448      -0.00555758       0.71338517
Al      11.07500000      15.12500000      13.10000000       0.35899956       0.01024071      -0.48923143
Al       9.05000000      17.15000000       5.00000000      -0.05055170       0.01616078      -0.69985863
Al       9.05000000      19.17500000       7.02500000      -0.08421672       0.08421672       0.46323212
Al      11.07500000      17.15000000       7.02500000       0.00969738      -0.00969738       0.37895173
Al      11.07500000      19.17500000       5.00000000      -0.01616078       0.05055170      -0.69985863
Al       9.04804514      17.13954764       9.06102663      -0.00045583      -0.00024446      -0.00614788
Al       9.07038095      19.15461905      11.07391076      -0.00351658       0.00351658       0.01827135
Al      11.14487993      17.08012007      11.08920317      -0.00551158       0.00551158       0.03564153
Al      11.08545236      19.17695486       9.06102663       0.00024446       0.00045583      -0.00614788
Al       9.05000000      17.15000000      13.10000000      -0.09741096      -0.00010520      -0.43215956
Al       9.05000000      19.17500000      15.12500000      -0.04672822       0.04672822       0.69259947
Al      11.07500000      17.15000000      15.12500000      -0.02315325       0.02315325       0.71210558
Al      11.07500000      19.17500000      13.10000000       0.00010520       0.09741096      -0.43215956
Al       9.05000000      21.20000000       5.00000000      -0.04870742      -0.32020216      -0.62975314
Al       9.05000000      23.22500000       7.02500000      -0.03731942       0.58501773       0.23629586
Al      11.07500000      21.20000000       7.02500000      -0.00488175      -0.03981439       0.57211449
Al      11.07500000      23.22500000       5.00000000      -0.01329495       0.21102851      -0.16385002
Al       9.05779919      21.23049685       9.06818032      -0.00250507       0.00772960      -0.01151723
Al       9.04075886      23.41241126      11.09686501       0.00033073       0.00146498      -0.00854140
Al      11.06737742      21.26509330      11.05262406       0.00358447       0.00688200       0.02528570
Al      11.06380546      23.43302679       9.03373563       0.00114400       0.00496415       0.01710769
Al       9.05000000      21.20000000      13.10000000      -0.05667942      -0.07759744      -0.57423202
Al       9.05000000      23.22500000      15.12500000      -0.04166426       0.20129472       0.16029628
Al      11.07500000      21.20000000      15.12500000      -0.01345027      -0.32352061       0.62993565
Al      11.07500000      23.22500000      13.10000000      -0.01386569       0.61960800      -0.23890410
Al      13.10000000       5.00000000       5.00000000       0.00244991      -0.21356861      -0.16484956
Al      13.10000000       7.02500000       7.02500000       0.00319946      -0.01182560       0.55066029
Al      15.12500000       5.00000000       7.02500000       0.01092414      -0.62863604       0.25461779
Al      15.12500000       7.02500000       5.00000000       0.00032874       0.32014581      -0.63384799
Al      13.09711447       4.78823673       9.03294263       0.00507448      -0.00502034       0.01439521
Al      13.09727702       6.95831559      11.05177038       0.00750588      -0.01561545       0.02612538
Al      15.12694909       4.78817235      11.09195196      -0.00026033      -0.00284627      -0.01259938
Al      15.12781950       6.95711630       9.07208934       0.00061260      -0.01647643      -0.02126958
Al      13.10000000       5.00000000      13.10000000      -0.01102710      -0.62419818      -0.25693889
Al      13.10000000       7.02500000      15.12500000       0.00176478       0.32219685       0.63387518
Al      15.12500000       5.00000000      15.12500000      -0.00136818      -0.21169610       0.16451654
Al      15.12500000       7.02500000      13.10000000      -0.00209298      -0.00468765      -0.55389208
Al      13.10000000       9.05000000       5.00000000       0.00262881      -0.05048899      -0.69836391
Al      13.10000000      11.07500000       7.02500000      -0.00374694       0.05749554       0.42318411
Al      15.12500000       9.05000000       7.02500000       0.00078092      -0.12781563       0.41606650
Al      15.12500000      11.07500000       5.00000000       0.00185060      -0.01516323      -0.70027472
Al      13.09946184       9.02216088       9.05049532       0.00458531      -0.00609575      -0.01579495
Al      13.09998995      11.04574829      11.07624033       0.00410556       0.01454826       0.02383908
Al      15.12766679       9.02078192      11.07141985       0.00117217      -0.00535933       0.02142576
Al      15.11306802      11.08252202       9.06071506      -0.00404350       0.01531564      -0.01387334
Al      13.10000000       9.05000000      13.10000000       0.00257059      -0.19100937      -0.35779271
Al      13.10000000      11.07500000      15.12500000       0.00115743      -0.01017998       0.69181519
Al      15.12500000       9.05000000      15.12500000      -0.00058489      -0.04723389       0.69517287
Al      15.12500000      11.07500000      13.10000000      -0.01302388       0.00634563      -0.36728402
Al      13.10000000      13.10000000       5.00000000       0.00136308       0.00203565      -0.70220374
Al      13.10000000      15.12500000       7.02500000      -0.00873348       0.00873348       0.08280179
Al      15.12500000      13.10000000       7.02500000      -0.04020666       0.04020666       0.36322244
Al      15.12500000      15.12500000       5.00000000      -0.00203565      -0.00136308      -0.70220374
Al      13.09761101      13.14164000       9.08613494       0.00497947       0.02025248      -0.00370992
Al      15.05072964      13.17427036      11.09122112       0.00274601      -0.00274601       0.03206841
Al      15.08336000      15.12738899       9.08613494      -0.02025248      -0.00497947      -0.00370992
Al      13.10000000      13.10000000      13.10000000      -0.01536749       0.39012953      -0.47283441
Al      13.10000000      15.12500000      15.12500000      -0.00052084       0.00052084       0.85181682
Al      15.12500000      13.10000000      15.12500000       0.00727051      -0.00727051       0.71233065
Al      15.12500000      15.12500000      13.10000000      -0.39012953       0.01536749      -0.47283441
Al      13.10000000      17.15000000       5.00000000      -0.00119064       0.01241341      -0.70230666
Al      13.10000000      19.17500000       7.02500000      -0.00297257       0.06109239       0.48406142
Al      15.12500000      17.15000000       7.02500000      -0.04290357      -0.00454917       0.37203417
Al      15.12500000      19.17500000       5.00000000      -0.00183193       0.04937780      -0.70253872
Al      13.09914877      17.11780251       9.08506725      -0.00164802      -0.02081511      -0.00139194
Al      13.09958882      19.22004640      11.07463076      -0.00400857       0.00488930       0.02495036
Al      15.05107077      17.08527894      11.09031373      -0.00053771      -0.00001595       0.03499846
Al      15.11411570      19.18409576       9.06099817      -0.00879656       0.00224137      -0.01081614
Al      13.10000000      17.15000000      13.10000000      -0.01024071      -0.35899956      -0.48923143
Al      13.10000000      19.17500000      15.12500000      -0.00246730       0.04608158       0.69207529
Al      15.12500000      17.15000000      15.12500000       0.00555758       0.02131448       0.71338517
Al      15.12500000      19.17500000      13.10000000      -0.02231674       0.11037018      -0.43084179
Al      13.10000000      21.20000000       5.00000000      -0.00222886      -0.31890707      -0.63556756
Al      13.10000000      23.22500000       7.02500000      -0.01504140       0.63614466       0.25083322
Al      15.12500000      21.20000000       7.02500000      -0.00504851      -0.02802752       0.58855463
Al      15.12500000      23.22500000       5.00000000      -0.00350829       0.21503631      -0.16543069
Al      13.09730739      21.26988255       9.07035546       0.00027388       0.01482818      -0.01714226
Al      13.09708037      23.43763974      11.09106618       0.00028491       0.00066711      -0.00995372
Al      15.13001953      21.27131525      11.05054998      -0.00942640       0.01345145       0.02880981
Al      15.12834991      23.43959979       9.03190927      -0.00517582       0.00498152       0.01661694
Al      13.10000000      21.20000000      13.10000000      -0.00256767       0.03376068      -0.53274360
Al      13.10000000      23.22500000      15.12500000      -0.00136991       0.21054370       0.16388676
Al      15.12500000      21.20000000      15.12500000      -0.00429684      -0.32252535       0.63344320
Al      15.12500000      23.22500000      13.10000000       0.00747330       0.62849243      -0.25578960
Al      17.15000000       5.00000000       5.00000000       0.01097565      -0.21030887      -0.16430599
Al      17.15000000       7.02500000       7.02500000       0.00013418       0.02236411       0.55279140
Al      19.17500000       5.00000000       7.02500000       0.03383956      -0.59142384       0.23681087
Al      19.17500000       7.02500000       5.00000000       0.04591572       0.32157520      -0.63014707
Al      17.15923340       4.79341403       9.03464780       0.00026973      -0.00576978       0.01410662
Al      17.15457823       6.96392501      11.05364375      -0.00058570      -0.01059867       0.02120453
Al      19.18232984       4.81377397      11.09731265       0.00141506      -0.00492551      -0.01175846
Al      19.16856681       6.99101891       9.06794822       0.00646718      -0.01007956      -0.01729395
Al      17.15000000       5.00000000      13.10000000       0.00877395      -0.61837719      -0.24087280
Al      17.15000000       7.02500000      15.12500000       0.01044822       0.32313396       0.63228640
Al      19.17500000       5.00000000      15.12500000       0.04014336      -0.20422770       0.16244074
Al      19.17500000       7.02500000      13.10000000       0.05783476       0.06416826      -0.56606033
Al      17.15000000       9.05000000       5.00000000       0.01395574      -0.04919739      -0.69662797
Al      17.15000000      11.07500000       7.02500000       0.00226057      -0.00226057       0.37361104
Al      19.17500000       9.05000000       7.02500000       0.09981547      -0.09981547       0.44130062
Al      19.17500000      11.07500000       5.00000000       0.04919739      -0.01395574      -0.69662797
Al      17.14395453       9.04068986       9.05435442       0.00441535      -0.00751522      -0.01345491
Al      17.12857983      11.09642017      11.07373660      -0.00222196       0.00222196       0.02376548
Al      19.16840208       9.05659792      11.07263904       0.00731033      -0.00731033       0.01293819
Al      19.18431014      11.08104547       9.05435442       0.00751522      -0.00441535      -0.01345491
Al      17.15000000       9.05000000      13.10000000       0.00640774      -0.11649546      -0.40658040
Al      17.15000000      11.07500000      15.12500000       0.01243831      -0.01243831       0.69587527
Al      19.17500000       9.05000000      15.12500000       0.04516576      -0.04516576       0.69457918
Al      19.17500000      11.07500000      13.10000000       0.11649546      -0.00640774      -0.40658040
Al      17.15000000      13.10000000       5.00000000       0.01516323      -0.00185060      -0.70027472
Al      17.15000000      15.12500000       7.02500000      -0.05749554       0.00374694       0.42318411
Al      19.17500000      13.10000000       7.02500000       0.12781563      -0.00078092       0.41606650
Al      19.17500000      15.12500000       5.00000000       0.05048899      -0.00262881      -0.69836391
Al      17.14247798      13.11193198       9.06071506      -0.01531564       0.00404350      -0.01387334
Al      17.17925171      15.12501005      11.07624033      -0.01454826      -0.00410556       0.02383908
Al      19.20421808      13.09733321      11.07141985       0.00535933      -0.00117217       0.02142576
Al      19.20283912      15.12553816       9.05049532       0.00609575      -0.00458531      -0.01579495
Al      17.15000000      13.10000000      13.10000000      -0.00634563       0.01302388      -0.36728402
Al      17.15000000      15.12500000      15.12500000       0.01017998      -0.00115743       0.69181519
Al      19.17500000      13.10000000      15.12500000       0.04723389       0.00058489       0.69517287
Al      19.17500000      15.12500000      13.10000000       0.19100937      -0.00257059      -0.35779271
Al      17.15000000      17.15000000       5.00000000       0.01391710       0.01252712      -0.70174967
Al      17.15000000      19.17500000       7.02500000      -0.01642401       0.11098788       0.42579941
Al      19.17500000      17.15000000       7.02500000       0.11313307       0.01283597       0.41564424
Al      19.17500000      19.17500000       5.00000000       0.04749341       0.04589408      -0.69805714
Al      17.13794130      17.14200290       9.06193177      -0.01255556      -0.00741269      -0.01390360
Al      17.12650286      19.16788167      11.07350594      -0.00463361       0.00672842       0.02320193
Al      19.19682859      17.15254955      11.07146398       0.00192567      -0.00192623       0.02072398
Al      19.17137537      19.17242432       9.05390767       0.00140530       0.00427840      -0.00884377
Al      17.15000000      17.15000000      13.10000000      -0.01632784       0.01564652      -0.37799585
Al      17.15000000      19.17500000      15.12500000       0.01013483       0.04653141       0.69754014
Al      19.17500000      17.15000000      15.12500000       0.04675440       0.01090217       0.69530766
Al      19.17500000      19.17500000      13.10000000       0.08585472       0.10272844      -0.44409554
Al      17.15000000      21.20000000       5.00000000       0.01052425      -0.32032653      -0.63628041
Al      17.15000000      23.22500000       7.02500000       0.01108438       0.61110807       0.24942929
Al      19.17500000      21.20000000       7.02500000       0.05617119      -0.06458659       0.56466389
Al      19.17500000      23.22500000       5.00000000       0.04102769       0.20665331      -0.16532410
Al      17.14943327      21.25286360       9.07146246      -0.00824460       0.01131288      -0.01613321
Al      17.16066921      23.43180647      11.08950714      -0.00590683       0.00668941      -0.01062097
Al      19.16337681      21.22765187      11.05766860      -0.00029900       0.01081729       0.02317883
Al      19.18139008      23.40444484       9.02833786      -0.00114324       0.00997452       0.01243389
Al      17.15000000      21.20000000      13.10000000      -0.00976101      -0.03858316      -0.56149358
Al      17.15000000      23.22500000      15.12500000       0.00872053       0.21005744       0.16555325
Al      19.17500000      21.20000000      15.12500000       0.04463583      -0.32264223       0.63233775
Al      19.17500000      23.22500000      13.10000000       0.03274297       0.58583487      -0.23999616
Al      21.20000000       5.00000000       5.00000000      -0.45076034      -0.09818531      -0.07325751
Al      21.20000000       7.02500000       7.02500000      -0.14050477       0.14050477       0.68197134
Al      23.22500000       5.00000000       7.02500000       0.04321285      -0.04321285       0.52469924
Al      23.22500000       7.02500000       5.00000000       0.09818531       0.45076034      -0.07325751
Al      21.17830071       4.87720835       9.04694042       0.00138526      -0.00561456       0.00745016
Al      21.19646266       7.02853734      11.04351565       0.00774032      -0.00774032       0.02175386
Al      23.24824479       4.97675521      11.07572695       0.00814447      -0.00814447      -0.05317656
Al      23.34779165       7.04669929       9.04694042       0.00561456      -0.00138526       0.00745016
Al      21.20000000       5.00000000      13.10000000      -0.24220377      -0.48469883      -0.37864357
Al      21.20000000       7.02500000      15.12500000      -0.31902295       0.31902295       0.57387684
Al      23.22500000       5.00000000      15.12500000      -0.32881982       0.32881982      -0.33835530
Al      23.22500000       7.02500000      13.10000000       0.48469883       0.24220377      -0.37864357
Al      21.20000000       9.05000000       5.00000000      -0.32157520      -0.04591572      -0.63014707
Al      21.20000000      11.07500000       7.02500000      -0.02236411      -0.00013418       0.55279140
Al      23.22500000       9.05000000       7.02500000       0.59142384      -0.03383956       0.23681087
Al      23.22500000      11.07500000       5.00000000       0.21030887      -0.01097565      -0.16430599
Al      21.23398109       9.05643319       9.06794822       0.01007956      -0.00646718      -0.01729395
Al      21.26107499      11.07042177      11.05364375       0.01059867       0.00058570       0.02120453
Al      23.41122603       9.04267016      11.09731265       0.00492551      -0.00141506      -0.01175846
Al      23.43158597      11.06576660       9.03464780       0.00576978      -0.00026973       0.01410662
Al      21.20000000       9.05000000      13.10000000      -0.06416826      -0.05783476      -0.56606033
Al      21.20000000      11.07500000      15.12500000      -0.32313396      -0.01044822       0.63228640
Al      23.22500000       9.05000000      15.12500000       0.20422770      -0.04014336       0.16244074
Al      23.22500000      11.07500000      13.10000000       0.61837719      -0.00877395      -0.24087280
Al      21.20000000      13.10000000       5.00000000      -0.32014581      -0.00032874      -0.63384799
Al      21.20000000      15.12500000       7.02500000       0.01182560      -0.00319946       0.55066029
Al      23.22500000      13.10000000       7.02500000       0.62863604      -0.01092414       0.25461779
Al      23.22500000      15.12500000       5.00000000       0.21356861      -0.00244991      -0.16484956
Al      21.26788370      13.09718050       9.07208934       0.01647643      -0.00061260      -0.02126958
Al      21.26668441      15.12772298      11.05177038       0.01561545      -0.00750588       0.02612538
Al      23.43682765      13.09805091      11.09195196       0.00284627       0.00026033      -0.01259938
Al      23.43676327      15.12788553       9.03294263       0.00502034      -0.00507448       0.01439521
Al      21.20000000      13.10000000      13.10000000       0.00468765       0.00209298      -0.55389208
Al      21.20000000      15.12500000      15.12500000      -0.32219685      -0.00176478       0.63387518
Al      23.22500000      13.10000000      15.12500000       0.21169610       0.00136818       0.16451654
Al      23.22500000      15.12500000      13.10000000       0.62419818       0.01102710      -0.25693889
Al      21.20000000      17.15000000       5.00000000      -0.31994963       0.00934782      -0.63406380
Al      21.20000000      19.17500000       7.02500000      -0.05937365       0.06066666       0.56243352
Al      23.22500000      17.15000000       7.02500000       0.62362730       0.00882616       0.23689707
Al      23.22500000      19.17500000       5.00000000       0.20727522       0.04015840      -0.16364401
Al      21.26153445      17.15552004       9.07021448       0.01250143      -0.00630921      -0.01885449
Al      21.23900447      19.17247306      11.05696095       0.00957571       0.00218978       0.02204393
Al      23.43038060      17.15971047      11.09011658       0.00805225      -0.00414770      -0.01161104
Al      23.41215534      19.18275023       9.02728944       0.01053735      -0.00018518       0.01218478
Al      21.20000000      17.15000000      13.10000000      -0.00732323      -0.00095203      -0.53658629