299
Lattice="28.224999999999998 0.0 0.0 0.0 28.224999999999998 0.0 0.0 0.0 20.125" Properties=species:S:1:pos:R:3:forces:R:3 energy=-16469.306899922238 pbc="T T T"
Al       5.00000000       5.00000000       5.00000000       0.32633264       0.32633259       0.33193034
Al       5.00000000       7.02500000       7.02500000      -0.49688799       0.24865197       0.38995124
Al       7.02500000       5.00000000       7.02500000       0.24372794      -0.49672184       0.38614091
Al       7.02500000       7.02500000       5.00000000       0.32582644       0.32649825      -0.58889252
Al       4.97742802       4.97784621       9.05072294      -0.01326798      -0.01277376       0.01673045
Al       4.88251098       7.04877401      11.07805232      -0.00255521       0.00128169       0.01098502
Al       7.04661726       4.87415468      11.07856216      -0.00091061      -0.00276427       0.00983283
Al       7.02859248       7.02748585       9.08284212      -0.00593941      -0.00345940      -0.02005502
Al       5.00000000       5.00000000      13.10000000      -0.04662211      -0.04173195      -0.53326791
Al       5.00000000       7.02500000      15.12500000      -0.09102013       0.45689154       0.08614786
Al       7.02500000       5.00000000      15.12500000       0.45551947      -0.09168538       0.08548061
Al       7.02500000       7.02500000      13.10000000       0.15207924       0.15651818      -0.67772969
Al       5.00000000       9.05000000       5.00000000      -0.19636840      -0.03808751      -0.17543140
Al       5.00000000      11.07500000       7.02500000      -0.61613265      -0.00915763       0.26244470
Al       7.02500000       9.05000000       7.02500000       0.07677067      -0.04833045       0.56750251
Al       7.02500000      11.07500000       5.00000000       0.32923174      -0.01022217      -0.64522991
Al       4.82079653       9.04401661       9.02839193       0.00003444       0.00680034      -0.00246950
Al       4.79403888      11.06485566      11.08920370       0.00435573       0.00690313       0.00825412
Al       6.99743678       9.06227083      11.05667265      -0.00202480       0.00928506       0.02836272
Al       6.97231672      11.07620092       9.07239643      -0.00282594       0.00666224      -0.01721775
Al       5.00000000       9.05000000      13.10000000      -0.59084870      -0.02386638      -0.24873846
Al       5.00000000      11.07500000      15.12500000      -0.19779009      -0.00718948       0.17425517
Al       7.02500000       9.05000000      15.12500000       0.33279878      -0.03927291       0.64105099
Al       7.02500000      11.07500000      13.10000000       0.05303064       0.01282819      -0.56418129
Al       5.00000000      13.10000000       5.00000000      -0.20527869       0.00166329      -0.17566221
Al       5.00000000      15.12500000       7.02500000      -0.64237897       0.00952974       0.26474822
Al       7.02500000      13.10000000       7.02500000       0.04130525       0.00278953       0.59269046
Al       7.02500000      15.12500000       5.00000000       0.32774420      -0.00165511      -0.64629142
Al       4.78684018      13.09677570       9.03232391       0.00353345       0.00364065       0.00033921
Al       4.78899059      15.12740548      11.09067875       0.00681565      -0.00371806       0.01071097
Al       6.95403755      13.09520733      11.04959912      -0.00753343       0.00469991       0.03679235
Al       6.95554067      15.12717567       9.07149186      -0.00954555      -0.00277294      -0.02123892
Al       5.00000000      13.10000000      13.10000000      -0.63162036      -0.00859385      -0.26766925
Al       5.00000000      15.12500000      15.12500000      -0.19943340      -0.00164530       0.17330428
Al       7.02500000      13.10000000      15.12500000       0.33133351       0.00247426       0.64096315
Al       7.02500000      15.12500000      13.10000000      -0.02088528      -0.00290092      -0.53308689
Al       5.00000000      17.15000000       5.00000000      -0.20353190       0.00874296      -0.17638245
Al       5.00000000      19.17500000       7.02500000      -0.59630874       0.02757324       0.24617455
Al       7.02500000      17.15000000       7.02500000       0.05408568      -0.00375687       0.57616662
Al       7.02500000      19.17500000       5.00000000       0.32986334       0.04256960      -0.64438199
Al       4.79276270      17.16040130       9.03398392       0.00216758      -0.00586878       0.00275468
Al       4.81296060      19.18369549      11.09684395       0.00430360      -0.00766068       0.00952482
Al       6.96039722      17.15669932      11.05189808       0.00001249      -0.00648629       0.03063665
Al       6.99498915      19.16645049       9.06915987      -0.00048641      -0.00738218      -0.01162412
Al       5.00000000      17.15000000      13.10000000      -0.62568020       0.00625518      -0.24913396
Al       5.00000000      19.17500000      15.12500000      -0.19223825       0.03664801       0.17238263
Al       7.02500000      17.15000000      15.12500000       0.33273504       0.00885587       0.63983265
Al       7.02500000      19.17500000      13.10000000       0.09186320       0.04617882      -0.57264716
Al       5.00000000      21.20000000       5.00000000      -0.09463898      -0.45419675      -0.08696016
Al       5.00000000      23.22500000       7.02500000      -0.04581846       0.04581846       0.53591952
Al       7.02500000      21.20000000       7.02500000       0.15646098      -0.15646098       0.67680022
Al       7.02500000      23.22500000       5.00000000       0.45419675       0.09463898      -0.08696016
Al       4.88128448      21.17621396       9.04606344      -0.00181294      -0.00062376      -0.00205972
Al       4.98116718      23.24383282      11.07277252      -0.00982332       0.00982332      -0.01154622
Al       7.03441277      21.19058723      11.04331997      -0.00277454       0.00277454       0.02766444
Al       7.04878604      23.34371552       9.04606344       0.00062376       0.00181294      -0.00205972
Al       5.00000000      21.20000000      13.10000000      -0.48602524      -0.24887756      -0.38605177
Al       5.00000000      23.22500000      15.12500000       0.32960360      -0.32960360      -0.33214420
Al       7.02500000      21.20000000      15.12500000       0.32928110      -0.32928110       0.58632246
Al       7.02500000      23.22500000      13.10000000       0.24887756       0.48602524      -0.38605177
Al       9.05000000       5.00000000       5.00000000      -0.03862144      -0.19717401      -0.17502433
Al       9.05000000       7.02500000       7.02500000      -0.05677302       0.07462965       0.56512262
Al      11.07500000       5.00000000       7.02500000      -0.00753293      -0.62985626       0.24963128
Al      11.07500000       7.02500000       5.00000000      -0.01007269       0.32983345      -0.64470238
Al       9.04232005       4.81345099       9.02734854       0.00382448      -0.00116525      -0.00284985
Al       9.05267703       6.98659517      11.05595205       0.00513477       0.00030228       0.02682555
Al      11.06578349       4.79545061      11.08969416       0.00400937       0.00157949       0.00695492
Al      11.06993712       6.96393664       9.07097521       0.00396630      -0.00336446      -0.01935198
Al       9.05000000       5.00000000      13.10000000      -0.02723635      -0.60396634      -0.23774062
Al       9.05000000       7.02500000      15.12500000      -0.04170749       0.33434978       0.64118821
Al      11.07500000       5.00000000      15.12500000      -0.00925836      -0.19927474       0.17604023
Al      11.07500000       7.02500000      13.10000000       0.00230456       0.02422021      -0.53994260
Al       9.05000000       9.05000000       5.00000000      -0.04491409      -0.04409338      -0.70514519
Al       9.05000000      11.07500000       7.02500000      -0.10732488       0.01806167       0.43603408
Al      11.07500000       9.05000000       7.02500000      -0.01367513      -0.10606870       0.42553960
Al      11.07500000      11.07500000       5.00000000      -0.01527380      -0.01466303      -0.70857037
Al       9.05260934       9.05409644       9.05493492       0.00353936       0.00938501      -0.01201026
Al       9.05718119      11.09922326      11.07231389       0.00109222       0.00141711       0.03117447
Al      11.07283457       9.02861090      11.07022705      -0.00208170       0.00785289       0.02872857
Al      11.08340656      11.08768183       9.06306449       0.00186906       0.01081890      -0.01467797
Al       9.05000000       9.05000000      13.10000000      -0.09736927      -0.07581866      -0.45044433
Al       9.05000000      11.07500000      15.12500000      -0.04640438      -0.01020653       0.70203826
Al      11.07500000       9.05000000      15.12500000      -0.01256942      -0.04375527       0.70082976
Al      11.07500000      11.07500000      13.10000000      -0.01915432       0.01616429      -0.39009997
Al       9.05000000      13.10000000       5.00000000      -0.04915117      -0.00037192      -0.70961985
Al       9.05000000      15.12500000       7.02500000      -0.05799033      -0.00069145       0.49102603
Al      11.07500000      13.10000000       7.02500000       0.00103017       0.04030685       0.38380337
Al      11.07500000      15.12500000       5.00000000      -0.01388548       0.00064815      -0.71090954
Al       9.04083540      13.11117279       9.06218629       0.00551522       0.00242165      -0.01556353
Al       9.00487756      15.12509429      11.07363056       0.00494687       0.00225643       0.03453672
Al      11.14017892      13.17433245      11.08889234      -0.00386117      -0.00544130       0.04646401
Al      11.10727855      15.12560467       9.08620770       0.02691188       0.00241795      -0.00482197
Al       9.05000000      13.10000000      13.10000000      -0.10779490       0.01912043      -0.43807987
Al       9.05000000      15.12500000      15.12500000      -0.04720170       0.00000522       0.69892958
Al      11.07500000      13.10000000      15.12500000      -0.02547935      -0.00839031       0.72038739
Al      11.07500000      15.12500000      13.10000000       0.35786029       0.00920413      -0.50132990
Al       9.05000000      17.15000000       5.00000000      -0.04708895       0.01244484      -0.70852713
Al       9.05000000      19.17500000       7.02500000      -0.07341875       0.07341875       0.47038511
Al      11.07500000      17.15000000       7.02500000       0.01121605      -0.01121605       0.39055865
Al      11.07500000      19.17500000       5.00000000      -0.01244484       0.04708895      -0.70852713
Al       9.04836222      17.13880522       9.06226969       0.01050307      -0.00081119      -0.00903415
Al       9.07103027      19.15396973      11.07299675       0.00730998      -0.00730998       0.02615886
Al      11.14546497      17.07953503      11.08800077      -0.00645845       0.00645845       0.04507614
Al      11.08619478      19.17663778       9.06226969       0.00081119      -0.01050307      -0.00903415
Al       9.05000000      17.15000000      13.10000000      -0.09080260      -0.00521554      -0.43883791
Al       9.05000000      19.17500000      15.12500000      -0.04264649       0.04264649       0.70104576
Al      11.07500000      17.15000000      15.12500000      -0.02342629       0.02342629       0.71892692
Al      11.07500000      19.17500000      13.10000000       0.00521554       0.09080260      -0.43883791
Al       9.05000000      21.20000000       5.00000000      -0.04256960      -0.32986334      -0.64438199
Al       9.05000000      23.22500000       7.02500000      -0.02757324       0.59630874       0.24617455
Al      11.07500000      21.20000000       7.02500000       0.00375687      -0.05408568       0.57616662
Al      11.07500000      23.22500000       5.00000000      -0.00874296       0.20353190      -0.17638245
Al       9.05854951      21.23001085       9.06915987       0.00738218       0.00048641      -0.01162412
Al       9.04130451      23.41203940      11.09684395       0.00766068      -0.00430360       0.00952482
Al      11.06830068      21.26460278      11.05189808       0.00648629      -0.00001249       0.03063665
Al      11.06459870      23.43223730       9.03398392       0.00586878      -0.00216758       0.00275468
Al       9.05000000      21.20000000      13.10000000      -0.04617882      -0.09186320      -0.57264716
Al       9.05000000      23.22500000      15.12500000      -0.03664801       0.19223825       0.17238263
Al      11.07500000      21.20000000      15.12500000      -0.00885587      -0.33273504       0.63983265
Al      11.07500000      23.22500000      13.10000000      -0.00625518       0.62568020      -0.24913396
Al      13.10000000       5.00000000       5.00000000       0.00165505      -0.20502250      -0.17660499
Al      13.10000000       7.02500000       7.02500000       0.00214603       0.00251710       0.55470568
Al      15.12500000       5.00000000       7.02500000       0.00909918      -0.63639199       0.26711449
Al      15.12500000       7.02500000       5.00000000      -0.00118725       0.32868392      -0.64583905
Al      13.09755345       4.78952200       9.03321142       0.00322976       0.00169488      -0.00238186
Al      13.09775090       6.95873746      11.05063524       0.00258259      -0.00848185       0.03400257
Al      15.12704308       4.78956819      11.09133407      -0.00312289       0.00308838       0.00812460
Al      15.12797449       6.95744955       9.07302450      -0.00274683      -0.01024553      -0.02536330
Al      13.10000000       5.00000000      13.10000000      -0.01080381      -0.62915819      -0.26955710
Al      13.10000000       7.02500000      15.12500000       0.00021506       0.33230715       0.64380965
Al      15.12500000       5.00000000      15.12500000      -0.00295063      -0.20197377       0.17602221
Al      15.12500000       7.02500000      13.10000000      -0.00452382       0.01012641      -0.55599375
Al      13.10000000       9.05000000       5.00000000       0.00025653      -0.04894858      -0.70671151
Al      13.10000000      11.07500000       7.02500000      -0.00721111       0.05554204       0.43401169
Al      15.12500000       9.05000000       7.02500000      -0.00110707      -0.12251870       0.42418218
Al      15.12500000      11.07500000       5.00000000       0.00126336      -0.01608035      -0.70975670
Al      13.09976451       9.02238265       9.05158820      -0.00109149       0.00228959      -0.02125969
Al      13.10026517      11.04641122      11.07480690      -0.00154290       0.01289075       0.03275744
Al      15.12769658       9.02089092      11.07011552      -0.00060489       0.00360141       0.03242239
Al      15.11280946      11.08316661       9.06199584      -0.00249758       0.01458779      -0.01749602
Al      13.10000000       9.05000000      13.10000000      -0.00005373      -0.18565141      -0.36533240
Al      13.10000000      11.07500000      15.12500000      -0.00210535      -0.01327924       0.69981151
Al      15.12500000       9.05000000      15.12500000      -0.00229023      -0.04582554       0.70297534
Al      15.12500000      11.07500000      13.10000000      -0.01338100       0.00603828      -0.37920448
Al      13.10000000      13.10000000       5.00000000      -0.00124451       0.00096065      -0.71244550
Al      13.10000000      15.12500000       7.02500000      -0.01053400       0.01053400       0.09838532
Al      15.12500000      13.10000000       7.02500000      -0.03932269       0.03932269       0.37494871
Al      15.12500000      15.12500000       5.00000000      -0.00096065       0.00124451      -0.71244550
Al      13.09796222      13.14161076       9.08732404      -0.00086194       0.02471149      -0.00750081
Al      15.05032040      13.17467960      11.08941765       0.00541551      -0.00541551       0.04692123
Al      15.08338924      15.12703778       9.08732404      -0.02471149       0.00086194      -0.00750081
Al      13.10000000      13.10000000      13.10000000      -0.01847497       0.38978795      -0.48743846
Al      13.10000000      15.12500000      15.12500000      -0.00203911       0.00203911       0.85967381
Al      15.12500000      13.10000000      15.12500000       0.00835689      -0.00835689       0.72223375
Al      15.12500000      15.12500000      13.10000000      -0.38978795       0.01847497      -0.48743846
Al      13.10000000      17.15000000       5.00000000      -0.00064815       0.01388548      -0.71090954
Al      13.10000000      19.17500000       7.02500000       0.00069145       0.05799033       0.49102603
Al      15.12500000      17.15000000       7.02500000      -0.04030685      -0.00103017       0.38380337
Al      15.12500000      19.17500000       5.00000000       0.00037192       0.04915117      -0.70961985
Al      13.09939533      17.11772145       9.08620770      -0.00241795      -0.02691188      -0.00482197
Al      13.09990571      19.22012244      11.07363056      -0.00225643      -0.00494687       0.03453672
Al      15.05066755      17.08482108      11.08889234       0.00544130       0.00386117       0.04646401
Al      15.11382721      19.18416460       9.06218629      -0.00242165      -0.00551522      -0.01556353
Al      13.10000000      17.15000000      13.10000000      -0.00920413      -0.35786029      -0.50132990
Al      13.10000000      19.17500000      15.12500000      -0.00000522       0.04720170       0.69892958
Al      15.12500000      17.15000000      15.12500000       0.00839031       0.02547935       0.72038739
Al      15.12500000      19.17500000      13.10000000      -0.01912043       0.10779490      -0.43807987
Al      13.10000000      21.20000000       5.00000000       0.00165511      -0.32774420      -0.64629142
Al      13.10000000      23.22500000       7.02500000      -0.00952974       0.64237897       0.26474822
Al      15.12500000      21.20000000       7.02500000      -0.00278953      -0.04130525       0.59269046
Al      15.12500000      23.22500000       5.00000000      -0.00166329       0.20527869      -0.17566221
Al      13.09782433      21.26945933       9.07149186       0.00277294       0.00954555      -0.02123892
Al      13.09759452      23.43600941      11.09067875       0.00371806      -0.00681565       0.01071097
Al      15.12979267      21.27096245      11.04959912      -0.00469991       0.00753343       0.03679235
Al      15.12822430      23.43815982       9.03232391      -0.00364065      -0.00353345       0.00033921
Al      13.10000000      21.20000000      13.10000000       0.00290092       0.02088528      -0.53308689
Al      13.10000000      23.22500000      15.12500000       0.00164530       0.19943340       0.17330428
Al      15.12500000      21.20000000      15.12500000      -0.00247426      -0.33133351       0.64096315
Al      15.12500000      23.22500000      13.10000000       0.00859385       0.63162036      -0.26766925
Al      17.15000000       5.00000000       5.00000000       0.00906608      -0.20265884      -0.17705622
Al      17.15000000       7.02500000       7.02500000      -0.00285791       0.03566584       0.55507256
Al      19.17500000       5.00000000       7.02500000       0.02814065      -0.60164320       0.24465340
Al      19.17500000       7.02500000       5.00000000       0.04262223       0.33057624      -0.64381135
Al      17.15923502       4.79429143       9.03479188      -0.00313424      -0.00037352      -0.00228790
Al      17.15460681       6.96414403      11.05250251      -0.00496682      -0.00218468       0.02843794
Al      19.18243484       4.81457786      11.09686198      -0.00418256      -0.00046303       0.00767277
Al      19.16871778       6.99126305       9.06887184      -0.00446589      -0.00246820      -0.02241617
Al      17.15000000       5.00000000      13.10000000       0.00530440      -0.62556752      -0.25188110
Al      17.15000000       7.02500000      15.12500000       0.00783342       0.33274865       0.64389799
Al      19.17500000       5.00000000      15.12500000       0.03697075      -0.19532048       0.17532851
Al      19.17500000       7.02500000      13.10000000       0.05147185       0.07763477      -0.56492933
Al      17.15000000       9.05000000       5.00000000       0.01263844      -0.04697767      -0.70604655
Al      17.15000000      11.07500000       7.02500000       0.00081640      -0.00081640       0.38538156
Al      19.17500000       9.05000000       7.02500000       0.09305500      -0.09305500       0.44596431
Al      19.17500000      11.07500000       5.00000000       0.04697767      -0.01263844      -0.70604655
Al      17.14391337       9.04067837       9.05545630       0.00175844       0.00371114      -0.01820280
Al      17.12813548      11.09686452      11.07230428      -0.00280521       0.00280521       0.03233074
Al      19.16851197       9.05648803      11.07123603      -0.00509702       0.00509702       0.02439801
Al      19.18432163      11.08108663       9.05545630      -0.00371114      -0.00175844      -0.01820280
Al      17.15000000       9.05000000      13.10000000       0.00320687      -0.10960860      -0.41400438
Al      17.15000000      11.07500000      15.12500000       0.01239977      -0.01239977       0.70373323
Al      19.17500000       9.05000000      15.12500000       0.04163440      -0.04163440       0.70418639
Al      19.17500000      11.07500000      13.10000000       0.10960860      -0.00320687      -0.41400438
Al      17.15000000      13.10000000       5.00000000       0.01608035      -0.00126336      -0.70975670
Al      17.15000000      15.12500000       7.02500000      -0.05554204       0.00721111       0.43401169
Al      19.17500000      13.10000000       7.02500000       0.12251870       0.00110707       0.42418218
Al      19.17500000      15.12500000       5.00000000       0.04894858      -0.00025653      -0.70671151
Al      17.14183339      13.11219054       9.06199584      -0.01458779       0.00249758      -0.01749602
Al      17.17858878      15.12473483      11.07480690      -0.01289075       0.00154290       0.03275744
Al      19.20410908      13.09730342      11.07011552      -0.00360141       0.00060489       0.03242239
Al      19.20261735      15.12523549       9.05158820      -0.00228959       0.00109149      -0.02125969
Al      17.15000000      13.10000000      13.10000000      -0.00603828       0.01338100      -0.37920448
Al      17.15000000      15.12500000      15.12500000       0.01327924       0.00210535       0.69981151
Al      19.17500000      13.10000000      15.12500000       0.04582554       0.00229023       0.70297534
Al      19.17500000      15.12500000      13.10000000       0.18565141       0.00005373      -0.36533240
Al      17.15000000      17.15000000       5.00000000       0.01466303       0.01527380      -0.70857037
Al      17.15000000      19.17500000       7.02500000      -0.01806167       0.10732488       0.43603408
Al      19.17500000      17.15000000       7.02500000       0.10606870       0.01367513       0.42553960
Al      19.17500000      19.17500000       5.00000000       0.04409338       0.04491409      -0.70514519
Al      17.13731817      17.14159344       9.06306449      -0.01081890      -0.00186906      -0.01467797
Al      17.12577674      19.16781881      11.07231389      -0.00141711      -0.00109222       0.03117447
Al      19.19638910      17.15216543      11.07022705      -0.00785289       0.00208170       0.02872857
Al      19.17090356      19.17239066       9.05493492      -0.00938501      -0.00353936      -0.01201026
Al      17.15000000      17.15000000      13.10000000      -0.01616429       0.01915432      -0.39009997
Al      17.15000000      19.17500000      15.12500000       0.01020653       0.04640438       0.70203826
Al      19.17500000      17.15000000      15.12500000       0.04375527       0.01256942       0.70082976
Al      19.17500000      19.17500000      13.10000000       0.07581866       0.09736927      -0.45044433
Al      17.15000000      21.20000000       5.00000000       0.01022217      -0.32923174      -0.64522991
Al      17.15000000      23.22500000       7.02500000       0.00915763       0.61613265       0.26244470
Al      19.17500000      21.20000000       7.02500000       0.04833045      -0.07677067       0.56750251
Al      19.17500000      23.22500000       5.00000000       0.03808751       0.19636840      -0.17543140
Al      17.14879908      21.25268328       9.07239643      -0.00666224       0.00282594      -0.01721775
Al      17.16014434      23.43096112      11.08920370      -0.00690313      -0.00435573       0.00825412
Al      19.16272917      21.22756322      11.05667265      -0.00928506       0.00202480       0.02836272
Al      19.18098339      23.40420347       9.02839193      -0.00680034      -0.00003444      -0.00246950
Al      17.15000000      21.20000000      13.10000000      -0.01282819      -0.05303064      -0.56418129
Al      17.15000000      23.22500000      15.12500000       0.00718948       0.19779009       0.17425517
Al      19.17500000      21.20000000      15.12500000       0.03927291      -0.33279878       0.64105099
Al      19.17500000      23.22500000      13.10000000       0.02386638       0.59084870      -0.24873846
Al      21.20000000       5.00000000       5.00000000      -0.45445511      -0.09396850      -0.08694100
Al      21.20000000       7.02500000       7.02500000      -0.15057670       0.15057670       0.67695766
Al      23.22500000       5.00000000       7.02500000       0.04647852      -0.04647852       0.53309287
Al      23.22500000       7.02500000       5.00000000       0.09396850       0.45445511      -0.08694100
Al      21.17765378       4.87813962       9.04665212       0.00170821      -0.00509569      -0.00834404
Al      21.19615143       7.02884857      11.04221570       0.00447868      -0.00447868       0.02838561
Al      23.24716037       4.97783963      11.07442847       0.01348328      -0.01348328      -0.01474055
Al      23.34686038       7.04734622       9.04665212       0.00509569      -0.00170821      -0.00834404
Al      21.20000000       5.00000000      13.10000000      -0.24736759      -0.49520845      -0.38633280
Al      21.20000000       7.02500000      15.12500000      -0.32785692       0.32785692       0.58938572
Al      23.22500000       5.00000000      15.12500000      -0.32668374       0.32668374      -0.33161163
Al      23.22500000       7.02500000      13.10000000       0.49520845       0.24736759      -0.38633280
Al      21.20000000       9.05000000       5.00000000      -0.33057624      -0.04262223      -0.64381135
Al      21.20000000      11.07500000       7.02500000      -0.03566584       0.00285791       0.55507256
Al      23.22500000       9.05000000       7.02500000       0.60164320      -0.02814065       0.24465340
Al      23.22500000      11.07500000       5.00000000       0.20265884      -0.00906608      -0.17705622
Al      21.23373695       9.05628222       9.06887184       0.00246820       0.00446589      -0.02241617
Al      21.26085597      11.07039319      11.05250251       0.00218468       0.00496682       0.02843794
Al      23.41042214       9.04256516      11.09686198       0.00046303       0.00418256       0.00767277
Al      23.43070857      11.06576498       9.03479188       0.00037352       0.00313424      -0.00228790
Al      21.20000000       9.05000000      13.10000000      -0.07763477      -0.05147185      -0.56492933
Al      21.20000000      11.07500000      15.12500000      -0.33274865      -0.00783342       0.64389799
Al      23.22500000       9.05000000      15.12500000       0.19532048      -0.03697075       0.17532851
Al      23.22500000      11.07500000      13.10000000       0.62556752      -0.00530440      -0.25188110
Al      21.20000000      13.10000000       5.00000000      -0.32868392       0.00118725      -0.64583905
Al      21.20000000      15.12500000       7.02500000      -0.00251710      -0.00214603       0.55470568
Al      23.22500000      13.10000000       7.02500000       0.63639199      -0.00909918       0.26711449
Al      23.22500000      15.12500000       5.00000000       0.20502250      -0.00165505      -0.17660499
Al      21.26755045      13.09702551       9.07302450       0.01024553       0.00274683      -0.02536330
Al      21.26626254      15.12724910      11.05063524       0.00848185      -0.00258259       0.03400257
Al      23.43543181      13.09795692      11.09133407      -0.00308838       0.00312289       0.00812460
Al      23.43547800      15.12744655       9.03321142      -0.00169488      -0.00322976      -0.00238186
Al      21.20000000      13.10000000      13.10000000      -0.01012641       0.00452382      -0.55599375
Al      21.20000000      15.12500000      15.12500000      -0.33230715      -0.00021506       0.64380965
Al      23.22500000      13.10000000      15.12500000       0.20197377       0.00295063       0.17602221
Al      23.22500000      15.12500000      13.10000000       0.62915819       0.01080381      -0.26955710
Al      21.20000000      17.15000000       5.00000000      -0.32983345       0.01007269      -0.64470238
Al      21.20000000      19.17500000       7.02500000      -0.07462965       0.05677302       0.56512262
Al      23.22500000      17.15000000       7.02500000       0.62985626       0.00753293       0.24963128
Al      23.22500000      19.17500000       5.00000000       0.19717401       0.03862144      -0.17502433
Al      21.26106336      17.15506288       9.07097521       0.00336446      -0.00396630      -0.01935198
Al      21.23840483      19.17232297      11.05595205      -0.00030228      -0.00513477       0.02682555
Al      23.42954939      17.15921651      11.08969416      -0.00157949      -0.00400937       0.00695492
Al      23.41154901      19.18267995       9.02734854       0.00116525      -0.00382448      -0.00284985
Al      21.20000000      17.15000000      13.10000000      -0.02422021      -0.00230456      -0.53994260