299
Lattice="28.224999999999998 0.0 0.0 0.0 28.224999999999998 0.0 0.0 0.0 20.125" Properties=species:S:1:pos:R:3:forces:R:3 energy=-16469.29985825335 pbc="T T T"
Al       5.00000000       5.00000000       5.00000000       0.32639019       0.32541125       0.33417751
Al       5.00000000       7.02500000       7.02500000      -0.50017097       0.24158265       0.36929340
Al       7.02500000       5.00000000       7.02500000       0.24031250      -0.50145823       0.36384016
Al       7.02500000       7.02500000       5.00000000       0.32409984       0.32295402      -0.58658963
Al       4.97755961       4.97706405       9.04686943      -0.00801552      -0.00773989       0.05758454
Al       4.88327350       7.04853259      11.08182448      -0.00365849      -0.00278856      -0.04436944
Al       7.04711231       4.87390382      11.08250343      -0.00422885      -0.00352697      -0.04476896
Al       7.02918269       7.02732207       9.07801084      -0.00904651      -0.00711363       0.04573073
Al       5.00000000       5.00000000      13.10000000      -0.05196236      -0.04925233      -0.52041970
Al       5.00000000       7.02500000      15.12500000      -0.09538574       0.45221830       0.08378221
Al       7.02500000       5.00000000      15.12500000       0.45337746      -0.09667858       0.08231667
Al       7.02500000       7.02500000      13.10000000       0.14562093       0.14496110      -0.65626465
Al       5.00000000       9.05000000       5.00000000      -0.19940760      -0.03828131      -0.17423481
Al       5.00000000      11.07500000       7.02500000      -0.62112450      -0.00781184       0.23403808
Al       7.02500000       9.05000000       7.02500000       0.07240841      -0.05079090       0.53771362
Al       7.02500000      11.07500000       5.00000000       0.33136585      -0.00638783      -0.64615949
Al       4.82141456       9.04410881       9.02401700      -0.00439692       0.00151994       0.05108797
Al       4.79448315      11.06457189      11.09343218      -0.00184782       0.00703810      -0.04794475
Al       6.99810611       9.06215310      11.06145435      -0.00687224       0.00297722      -0.04563995
Al       6.97296584      11.07608721       9.06752129      -0.00638776       0.00842098       0.04823083
Al       5.00000000       9.05000000      13.10000000      -0.59886739      -0.03009746      -0.22621770
Al       5.00000000      11.07500000      15.12500000      -0.20409088      -0.00749729       0.17543536
Al       7.02500000       9.05000000      15.12500000       0.32988587      -0.04171341       0.64331426
Al       7.02500000      11.07500000      13.10000000       0.04668122       0.01259465      -0.53619353
Al       5.00000000      13.10000000       5.00000000      -0.20556202       0.00351373      -0.17466589
Al       5.00000000      15.12500000       7.02500000      -0.64638660       0.01035845       0.23583842
Al       7.02500000      13.10000000       7.02500000       0.03875535       0.00564930       0.55870136
Al       7.02500000      15.12500000       5.00000000       0.33124469      -0.00186872      -0.64607580
Al       4.78677416      13.09660835       9.02811502       0.00094554       0.00517326       0.04975132
Al       4.78887372      15.12773914      11.09475381       0.00252761      -0.00492050      -0.04537710
Al       6.95444294      13.09515737      11.05432730      -0.00985132       0.00649700      -0.03738205
Al       6.95583826      15.12736500       9.06666477      -0.00978541      -0.00449714       0.04337621
Al       5.00000000      13.10000000      13.10000000      -0.64084260      -0.00767381      -0.24368781
Al       5.00000000      15.12500000      15.12500000      -0.20491465      -0.00147570       0.17440174
Al       7.02500000      13.10000000      15.12500000       0.33198422       0.00380125       0.64475291
Al       7.02500000      15.12500000      13.10000000      -0.02720266      -0.00298524      -0.50474453
Al       5.00000000      17.15000000       5.00000000      -0.20415958       0.00867371      -0.17455558
Al       5.00000000      19.17500000       7.02500000      -0.60012489       0.03166065       0.21831153
Al       7.02500000      17.15000000       7.02500000       0.04992038      -0.00399649       0.54225218
Al       7.02500000      19.17500000       5.00000000       0.32879558       0.04214988      -0.64293741
Al       4.79291585      17.16079844       9.02961393      -0.00177865      -0.00676314       0.05201750
Al       4.81329776      19.18362457      11.10113365      -0.00199929      -0.00204982      -0.04809258
Al       6.96070964      17.15694583      11.05665540      -0.00325567      -0.00823953      -0.04360507
Al       6.99520187      19.16654681       9.06436255      -0.00392218      -0.00344107       0.05205876
Al       5.00000000      17.15000000      13.10000000      -0.63511050       0.00741483      -0.22411897
Al       5.00000000      19.17500000      15.12500000      -0.19892290       0.03912388       0.17182690
Al       7.02500000      17.15000000      15.12500000       0.33106842       0.00739673       0.64315407
Al       7.02500000      19.17500000      13.10000000       0.08243056       0.05068737      -0.54694532
Al       5.00000000      21.20000000       5.00000000      -0.09539948      -0.45231597      -0.08240064
Al       5.00000000      23.22500000       7.02500000      -0.05012734       0.05012734       0.52063969
Al       7.02500000      21.20000000       7.02500000       0.14944161      -0.14944161       0.65033549
Al       7.02500000      23.22500000       5.00000000       0.45231597       0.09539948      -0.08240064
Al       4.88147487      21.17619148       9.04204645      -0.00248360       0.00280241       0.04812503
Al       4.98095384      23.24404616      11.07639708      -0.00602543       0.00602543      -0.05447524
Al       7.03443753      21.19056247      11.04799416      -0.00673194       0.00673194      -0.04295041
Al       7.04880852      23.34352513       9.04204645      -0.00280241       0.00248360       0.04812503
Al       5.00000000      21.20000000      13.10000000      -0.49216413      -0.24074793      -0.36638210
Al       5.00000000      23.22500000      15.12500000       0.32774383      -0.32774383      -0.33427298
Al       7.02500000      21.20000000      15.12500000       0.32307020      -0.32307020       0.58518724
Al       7.02500000      23.22500000      13.10000000       0.24074793       0.49216413      -0.36638210
Al       9.05000000       5.00000000       5.00000000      -0.03750300      -0.20006628      -0.17257538
Al       9.05000000       7.02500000       7.02500000      -0.05573150       0.06706982       0.53469248
Al      11.07500000       5.00000000       7.02500000      -0.00541722      -0.63427871       0.22002277
Al      11.07500000       7.02500000       5.00000000      -0.00559796       0.33085443      -0.64404994
Al       9.04284582       4.81339392       9.02281744      -0.00047984      -0.00497709       0.05100151
Al       9.05306760       6.98663963      11.06073964      -0.00012073      -0.00540008      -0.04588309
Al      11.06562983       4.79553859      11.09404794       0.00611716      -0.00329627      -0.04763205
Al      11.06999536       6.96416730       9.06609381       0.00644306      -0.00697076       0.04701124
Al       9.05000000       5.00000000      13.10000000      -0.02869042      -0.61175353      -0.21273988
Al       9.05000000       7.02500000      15.12500000      -0.03987644       0.32876555       0.64198992
Al      11.07500000       5.00000000      15.12500000      -0.00706067      -0.20319950       0.17446154
Al      11.07500000       7.02500000      13.10000000       0.00618950       0.01431516      -0.50941602
Al       9.05000000       9.05000000       5.00000000      -0.03887351      -0.04016255      -0.70704463
Al       9.05000000      11.07500000       7.02500000      -0.10120917       0.02296943       0.39510876
Al      11.07500000       9.05000000       7.02500000      -0.00726235      -0.10302803       0.38401502
Al      11.07500000      11.07500000       5.00000000      -0.00547927      -0.00628154      -0.70868117
Al       9.05306947       9.05408977       9.05003465       0.00106149       0.00537630       0.05491032
Al       9.05759896      11.09900121      11.07726126       0.00180369       0.00571598      -0.04571817
Al      11.07290673       9.02867462      11.07520799       0.00281793       0.00616317      -0.04628486
Al      11.08357779      11.08762724       9.05814498       0.00958319       0.01522735       0.04816496
Al       9.05000000       9.05000000      13.10000000      -0.09588972      -0.08006232      -0.41811999
Al       9.05000000      11.07500000      15.12500000      -0.03814540      -0.00644670       0.70729492
Al      11.07500000       9.05000000      15.12500000      -0.00486949      -0.04000918       0.70466764
Al      11.07500000      11.07500000      13.10000000      -0.00796380       0.02274446      -0.34922208
Al       9.05000000      13.10000000       5.00000000      -0.03877963       0.00307293      -0.71040400
Al       9.05000000      15.12500000       7.02500000      -0.05032404      -0.00165506       0.44966241
Al      11.07500000      13.10000000       7.02500000       0.01399812       0.04507451       0.33747961
Al      11.07500000      15.12500000       5.00000000      -0.00350162      -0.00261084      -0.70959408
Al       9.04136315      13.11116890       9.05726022       0.00477119       0.00506595       0.04854693
Al       9.00523680      15.12518479      11.07860872       0.00558362       0.00029919      -0.04219829
Al      11.14017078      13.17405182      11.09415049       0.01076747       0.00263309      -0.03473728
Al      11.10760403      15.12564680       9.08168132       0.02213082      -0.00181184       0.04957369
Al       9.05000000      13.10000000      13.10000000      -0.10029894       0.02179386      -0.40194184
Al       9.05000000      15.12500000      15.12500000      -0.03668439      -0.00224067       0.70265888
Al      11.07500000      13.10000000      15.12500000      -0.01247680      -0.00488835       0.72151217
Al      11.07500000      15.12500000      13.10000000       0.37536256       0.00500282      -0.46147573
Al       9.05000000      17.15000000       5.00000000      -0.03975411       0.00761052      -0.70959045
Al       9.05000000      19.17500000       7.02500000      -0.07339971       0.07339971       0.43299342
Al      11.07500000      17.15000000       7.02500000       0.01933734      -0.01933734       0.34549051
Al      11.07500000      19.17500000       5.00000000      -0.00761052       0.03975411      -0.70959045
Al       9.04858899      17.13895126       9.05742583       0.00862984      -0.00473926       0.05377340
Al       9.07099572      19.15400428      11.07783394       0.00589103      -0.00589103      -0.05078632
Al      11.14537149      17.07962851      11.09314614       0.00376140      -0.00376140      -0.03581905
Al      11.08604874      19.17641101       9.05742583       0.00473926      -0.00862984       0.05377340
Al       9.05000000      17.15000000      13.10000000      -0.08684385      -0.00911743      -0.40440611
Al       9.05000000      19.17500000      15.12500000      -0.04015143       0.04015143       0.70587679
Al      11.07500000      17.15000000      15.12500000      -0.01402007       0.01402007       0.72189329
Al      11.07500000      19.17500000      13.10000000       0.00911743       0.08684385      -0.40440611
Al       9.05000000      21.20000000       5.00000000      -0.04214988      -0.32879558      -0.64293741
Al       9.05000000      23.22500000       7.02500000      -0.03166065       0.60012489       0.21831153
Al      11.07500000      21.20000000       7.02500000       0.00399649      -0.04992038       0.54225218
Al      11.07500000      23.22500000       5.00000000      -0.00867371       0.20415958      -0.17455558
Al       9.05845319      21.22979813       9.06436255       0.00344107       0.00392218       0.05205876
Al       9.04137543      23.41170224      11.10113365       0.00204982       0.00199929      -0.04809258
Al      11.06805417      21.26429036      11.05665540       0.00823953       0.00325567      -0.04360507
Al      11.06420156      23.43208415       9.02961393       0.00676314       0.00177865       0.05201750
Al       9.05000000      21.20000000      13.10000000      -0.05068737      -0.08243056      -0.54694532
Al       9.05000000      23.22500000      15.12500000      -0.03912388       0.19892290       0.17182690
Al      11.07500000      21.20000000      15.12500000      -0.00739673      -0.33106842       0.64315407
Al      11.07500000      23.22500000      13.10000000      -0.00741483       0.63511050      -0.22411897
Al      13.10000000       5.00000000       5.00000000       0.00222450      -0.20456483      -0.17413250
Al      13.10000000       7.02500000       7.02500000       0.00324385      -0.00207666       0.52004770
Al      15.12500000       5.00000000       7.02500000       0.00621466      -0.63989910       0.23925480
Al      15.12500000       7.02500000       5.00000000      -0.00416035       0.33176870      -0.64491833
Al      13.09712053       4.78929986       9.02886446       0.00598531      -0.00034348       0.04910702
Al      13.09752476       6.95894672      11.05541645       0.00691055      -0.01200222      -0.03688402
Al      15.12679987       4.78943248      11.09543004      -0.00218280       0.00104771      -0.04502825
Al      15.12756735       6.95778205       9.06814863      -0.00199115      -0.01260934       0.04231592
Al      13.10000000       5.00000000      13.10000000      -0.00920176      -0.63469878      -0.24318600
Al      13.10000000       7.02500000      15.12500000       0.00339244       0.33169038       0.64392948
Al      15.12500000       5.00000000      15.12500000      -0.00331710      -0.20356789       0.17389975
Al      15.12500000       7.02500000      13.10000000      -0.00545016       0.00298416      -0.52523096
Al      13.10000000       9.05000000       5.00000000       0.00304064      -0.03976572      -0.70645900
Al      13.10000000      11.07500000       7.02500000      -0.00251150       0.06745882       0.38788416
Al      15.12500000       9.05000000       7.02500000      -0.00495672      -0.11633348       0.38254737
Al      15.12500000      11.07500000       5.00000000      -0.00300929      -0.00548558      -0.70766379
Al      13.09963604       9.02264396       9.04653914       0.00277850       0.00401817       0.04674911
Al      13.10020544      11.04641746      11.07987801       0.00472502       0.02112156      -0.04129584
Al      15.12743804       9.02124877      11.07510418       0.00010751       0.00320350      -0.04120334
Al      15.11268906      11.08332666       9.05702289      -0.00548216       0.02159174       0.04705153
Al      13.10000000       9.05000000      13.10000000       0.00469286      -0.18377878      -0.32663692
Al      13.10000000      11.07500000      15.12500000       0.00393573      -0.00399313       0.69995315
Al      15.12500000       9.05000000      15.12500000      -0.00333979      -0.03923554       0.70435933
Al      15.12500000      11.07500000      13.10000000      -0.01597865       0.01573971      -0.33680868
Al      13.10000000      13.10000000       5.00000000       0.00374544       0.00512174      -0.70830715
Al      13.10000000      15.12500000       7.02500000      -0.00449540       0.00449540       0.05077027
Al      15.12500000      13.10000000       7.02500000      -0.04554329       0.04554329       0.32857157
Al      15.12500000      15.12500000       5.00000000      -0.00512174      -0.00374544      -0.70830715
Al      13.09794551      13.14172172       9.08286837       0.00680226       0.01576003       0.04626182
Al      15.05054257      13.17445743      11.09464883      -0.00274385       0.00274385      -0.03267360
Al      15.08327828      15.12705449       9.08286837      -0.01576003      -0.00680226       0.04626182
Al      13.10000000      13.10000000      13.10000000      -0.01041381       0.39915531      -0.44602855
Al      13.10000000      15.12500000      15.12500000       0.00383718      -0.00383718       0.85867628
Al      15.12500000      13.10000000      15.12500000       0.00496866      -0.00496866       0.71940842
Al      15.12500000      15.12500000      13.10000000      -0.39915531       0.01041381      -0.44602855
Al      13.10000000      17.15000000       5.00000000       0.00261084       0.00350162      -0.70959408
Al      13.10000000      19.17500000       7.02500000       0.00165506       0.05032404       0.44966241
Al      15.12500000      17.15000000       7.02500000      -0.04507451      -0.01399812       0.33747961
Al      15.12500000      19.17500000       5.00000000      -0.00307293       0.03877963      -0.71040400
Al      13.09935320      17.11739597       9.08168132       0.00181184      -0.02213082       0.04957369
Al      13.09981521      19.21976320      11.07860872      -0.00029919      -0.00558362      -0.04219829
Al      15.05094818      17.08482922      11.09415049      -0.00263309      -0.01076747      -0.03473728
Al      15.11383110      19.18363685       9.05726022      -0.00506595      -0.00477119       0.04854693
Al      13.10000000      17.15000000      13.10000000      -0.00500282      -0.37536256      -0.46147573
Al      13.10000000      19.17500000      15.12500000       0.00224067       0.03668439       0.70265888
Al      15.12500000      17.15000000      15.12500000       0.00488835       0.01247680       0.72151217
Al      15.12500000      19.17500000      13.10000000      -0.02179386       0.10029894      -0.40194184
Al      13.10000000      21.20000000       5.00000000       0.00186872      -0.33124469      -0.64607580
Al      13.10000000      23.22500000       7.02500000      -0.01035845       0.64638660       0.23583842
Al      15.12500000      21.20000000       7.02500000      -0.00564930      -0.03875535       0.55870136
Al      15.12500000      23.22500000       5.00000000      -0.00351373       0.20556202      -0.17466589
Al      13.09763500      21.26916174       9.06666477       0.00449714       0.00978541       0.04337621
Al      13.09726086      23.43612628      11.09475381       0.00492050      -0.00252761      -0.04537710
Al      15.12984263      21.27055706      11.05432730      -0.00649700       0.00985132      -0.03738205
Al      15.12839165      23.43822584       9.02811502      -0.00517326      -0.00094554       0.04975132
Al      13.10000000      21.20000000      13.10000000       0.00298524       0.02720266      -0.50474453
Al      13.10000000      23.22500000      15.12500000       0.00147570       0.20491465       0.17440174
Al      15.12500000      21.20000000      15.12500000      -0.00380125      -0.33198422       0.64475291
Al      15.12500000      23.22500000      13.10000000       0.00767381       0.64084260      -0.24368781
Al      17.15000000       5.00000000       5.00000000       0.00638619      -0.20428797      -0.17525894
Al      17.15000000       7.02500000       7.02500000      -0.00694886       0.03093065       0.52442395
Al      19.17500000       5.00000000       7.02500000       0.02926194      -0.60651701       0.22163613
Al      19.17500000       7.02500000       5.00000000       0.04009734       0.32968630      -0.64335317
Al      17.15886666       4.79433763       9.03029835      -0.00202910      -0.00245094       0.05176532
Al      17.15407777       6.96462150      11.05726690      -0.00211989      -0.00691556      -0.04226088
Al      19.18171118       4.81467947      11.10113234       0.00217243      -0.00140113      -0.04841727
Al      19.16816357       6.99167396       9.06408243       0.00341377      -0.00636947       0.04923814
Al      17.15000000       5.00000000      13.10000000       0.00316743      -0.63054013      -0.22654675
Al      17.15000000       7.02500000      15.12500000       0.00515428       0.33192164       0.64367043
Al      19.17500000       5.00000000      15.12500000       0.03692083      -0.19894540       0.17282300
Al      19.17500000       7.02500000      13.10000000       0.05283915       0.07074621      -0.54071770
Al      17.15000000       9.05000000       5.00000000       0.00550112      -0.03904153      -0.70745436
Al      17.15000000      11.07500000       7.02500000      -0.00866782       0.00866782       0.34096840
Al      19.17500000       9.05000000       7.02500000       0.09189308      -0.09189308       0.41312422
Al      19.17500000      11.07500000       5.00000000       0.03904153      -0.00550112      -0.70745436
Al      17.14354909       9.04112865       9.05047474       0.00068825       0.00101767       0.05147775
Al      17.12800529      11.09699471      11.07727620      -0.00847998       0.00847998      -0.04098680
Al      19.16803229       9.05696771      11.07607090       0.00154386      -0.00154386      -0.04916878
Al      19.18387135      11.08145091       9.05047474      -0.00101767      -0.00068825       0.05147775
Al      17.15000000       9.05000000      13.10000000      -0.00024854      -0.10829890      -0.37778164
Al      17.15000000      11.07500000      15.12500000       0.00554220      -0.00554220       0.70500961
Al      19.17500000       9.05000000      15.12500000       0.03883638      -0.03883638       0.70578427
Al      19.17500000      11.07500000      13.10000000       0.10829890       0.00024854      -0.37778164
Al      17.15000000      13.10000000       5.00000000       0.00548558       0.00300929      -0.70766379
Al      17.15000000      15.12500000       7.02500000      -0.06745882       0.00251150       0.38788416
Al      19.17500000      13.10000000       7.02500000       0.11633348       0.00495672       0.38254737
Al      19.17500000      15.12500000       5.00000000       0.03976572      -0.00304064      -0.70645900
Al      17.14167334      13.11231094       9.05702289      -0.02159174       0.00548216       0.04705153
Al      17.17858254      15.12479456      11.07987801      -0.02112156      -0.00472502      -0.04129584
Al      19.20375123      13.09756196      11.07510418      -0.00320350      -0.00010751      -0.04120334
Al      19.20235604      15.12536396       9.04653914      -0.00401817      -0.00277850       0.04674911
Al      17.15000000      13.10000000      13.10000000      -0.01573971       0.01597865      -0.33680868
Al      17.15000000      15.12500000      15.12500000       0.00399313      -0.00393573       0.69995315
Al      19.17500000      13.10000000      15.12500000       0.03923554       0.00333979       0.70435933
Al      19.17500000      15.12500000      13.10000000       0.18377878      -0.00469286      -0.32663692
Al      17.15000000      17.15000000       5.00000000       0.00628154       0.00547927      -0.70868117
Al      17.15000000      19.17500000       7.02500000      -0.02296943       0.10120917       0.39510876
Al      19.17500000      17.15000000       7.02500000       0.10302803       0.00726235       0.38401502
Al      19.17500000      19.17500000       5.00000000       0.04016255       0.03887351      -0.70704463
Al      17.13737276      17.14142221       9.05814498      -0.01522735      -0.00958319       0.04816496
Al      17.12599879      19.16740104      11.07726126      -0.00571598      -0.00180369      -0.04571817
Al      19.19632538      17.15209327      11.07520799      -0.00616317      -0.00281793      -0.04628486
Al      19.17091023      19.17193053       9.05003465      -0.00537630      -0.00106149       0.05491032
Al      17.15000000      17.15000000      13.10000000      -0.02274446       0.00796380      -0.34922208
Al      17.15000000      19.17500000      15.12500000       0.00644670       0.03814540       0.70729492
Al      19.17500000      17.15000000      15.12500000       0.04000918       0.00486949       0.70466764
Al      19.17500000      19.17500000      13.10000000       0.08006232       0.09588972      -0.41811999
Al      17.15000000      21.20000000       5.00000000       0.00638783      -0.33136585      -0.64615949
Al      17.15000000      23.22500000       7.02500000       0.00781184       0.62112450       0.23403808
Al      19.17500000      21.20000000       7.02500000       0.05079090      -0.07240841       0.53771362
Al      19.17500000      23.22500000       5.00000000       0.03828131       0.19940760      -0.17423481
Al      17.14891279      21.25203416       9.06752129      -0.00842098       0.00638776       0.04823083
Al      17.16042811      23.43051685      11.09343218      -0.00703810       0.00184782      -0.04794475
Al      19.16284690      21.22689389      11.06145435      -0.00297722       0.00687224      -0.04563995
Al      19.18089119      23.40358544       9.02401700      -0.00151994       0.00439692       0.05108797
Al      17.15000000      21.20000000      13.10000000      -0.01259465      -0.04668122      -0.53619353
Al      17.15000000      23.22500000      15.12500000       0.00749729       0.20409088       0.17543536
Al      19.17500000      21.20000000      15.12500000       0.04171341      -0.32988587       0.64331426
Al      19.17500000      23.22500000      13.10000000       0.03009746       0.59886739      -0.22621770
Al      21.20000000       5.00000000       5.00000000      -0.45288210      -0.09714627      -0.08369831
Al      21.20000000       7.02500000       7.02500000      -0.14475286       0.14475286       0.65810630
Al      23.22500000       5.00000000       7.02500000       0.05206016      -0.05206016       0.52074533
Al      23.22500000       7.02500000       5.00000000       0.09714627       0.45288210      -0.08369831
Al      21.17748191       4.87790965       9.04268902       0.00382033      -0.00149467       0.04728525
Al      21.19589857       7.02910143      11.04689419       0.00731235      -0.00731235      -0.04173047
Al      23.24777315       4.97722685      11.07817798       0.00582677      -0.00582677      -0.05686681
Al      23.34709035       7.04751809       9.04268902       0.00149467      -0.00382033       0.04728525
Al      21.20000000       5.00000000      13.10000000      -0.24292463      -0.49854114      -0.36887551
Al      21.20000000       7.02500000      15.12500000      -0.32465230       0.32465230       0.58626251
Al      23.22500000       5.00000000      15.12500000      -0.32603772       0.32603772      -0.33421059
Al      23.22500000       7.02500000      13.10000000       0.49854114       0.24292463      -0.36887551
Al      21.20000000       9.05000000       5.00000000      -0.32968630      -0.04009734      -0.64335317
Al      21.20000000      11.07500000       7.02500000      -0.03093065       0.00694886       0.52442395
Al      23.22500000       9.05000000       7.02500000       0.60651701      -0.02926194       0.22163613
Al      23.22500000      11.07500000       5.00000000       0.20428797      -0.00638619      -0.17525894
Al      21.23332604       9.05683643       9.06408243       0.00636947      -0.00341377       0.04923814
Al      21.26037850      11.07092223      11.05726690       0.00691556       0.00211989      -0.04226088
Al      23.41032053       9.04328882      11.10113234       0.00140113      -0.00217243      -0.04841727
Al      23.43066237      11.06613334       9.03029835       0.00245094       0.00202910       0.05176532
Al      21.20000000       9.05000000      13.10000000      -0.07074621      -0.05283915      -0.54071770
Al      21.20000000      11.07500000      15.12500000      -0.33192164      -0.00515428       0.64367043
Al      23.22500000       9.05000000      15.12500000       0.19894540      -0.03692083       0.17282300
Al      23.22500000      11.07500000      13.10000000       0.63054013      -0.00316743      -0.22654675
Al      21.20000000      13.10000000       5.00000000      -0.33176870       0.00416035      -0.64491833
Al      21.20000000      15.12500000       7.02500000       0.00207666      -0.00324385       0.52004770
Al      23.22500000      13.10000000       7.02500000       0.63989910      -0.00621466       0.23925480
Al      23.22500000      15.12500000       5.00000000       0.20456483      -0.00222450      -0.17413250
Al      21.26721795      13.09743265       9.06814863       0.01260934       0.00199115       0.04231592
Al      21.26605328      15.12747524      11.05541645       0.01200222      -0.00691055      -0.03688402
Al      23.43556752      13.09820013      11.09543004      -0.00104771       0.00218280      -0.04502825
Al      23.43570014      15.12787947       9.02886446       0.00034348      -0.00598531       0.04910702
Al      21.20000000      13.10000000      13.10000000      -0.00298416       0.00545016      -0.52523096
Al      21.20000000      15.12500000      15.12500000      -0.33169038      -0.00339244       0.64392948
Al      23.22500000      13.10000000      15.12500000       0.20356789       0.00331710       0.17389975
Al      23.22500000      15.12500000      13.10000000       0.63469878       0.00920176      -0.24318600
Al      21.20000000      17.15000000       5.00000000      -0.33085443       0.00559796      -0.64404994
Al      21.20000000      19.17500000       7.02500000      -0.06706982       0.05573150       0.53469248
Al      23.22500000      17.15000000       7.02500000       0.63427871       0.00541722       0.22002277
Al      23.22500000      19.17500000       5.00000000       0.20006628       0.03750300      -0.17257538
Al      21.26083270      17.15500464       9.06609381       0.00697076      -0.00644306       0.04701124
Al      21.23836037      19.17193240      11.06073964       0.00540008       0.00012073      -0.04588309
Al      23.42946141      17.15937017      11.09404794       0.00329627      -0.00611716      -0.04763205
Al      23.41160608      19.18215418       9.02281744       0.00497709       0.00047984       0.05100151
Al      21.20000000      17.15000000      13.10000000      -0.01431516      -0.00618950      -0.50941602