299
Lattice="28.224999999999998 0.0 0.0 0.0 28.224999999999998 0.0 0.0 0.0 20.125" Properties=species:S:1:pos:R:3:forces:R:3 energy=-16469.31099924663 pbc="T T T"
Al       5.00000000       5.00000000       5.00000000       0.33278882       0.33287060       0.34316168
Al       5.00000000       7.02500000       7.02500000      -0.48299965       0.24640127       0.36877444
Al       7.02500000       5.00000000       7.02500000       0.24399621      -0.48303974       0.36386828
Al       7.02500000       7.02500000       5.00000000       0.31492473       0.31464347      -0.55496425
Al       4.97729703       4.97706053       9.04905989      -0.00699983      -0.00579489       0.05886331
Al       4.88309321       7.04831721      11.07873822      -0.00795182      -0.00465136      -0.02545634
Al       7.04663268       4.87395141      11.07939076      -0.00564880      -0.00682092      -0.02631240
Al       7.02871087       7.02713828       9.08133316      -0.01192862      -0.01061633      -0.00686987
Al       5.00000000       5.00000000      13.10000000      -0.04652652      -0.04237641      -0.52212340
Al       5.00000000       7.02500000      15.12500000      -0.09136085       0.44970313       0.06665847
Al       7.02500000       5.00000000      15.12500000       0.44991335      -0.09179216       0.06544503
Al       7.02500000       7.02500000      13.10000000       0.14941436       0.15009405      -0.66059624
Al       5.00000000       9.05000000       5.00000000      -0.19867355      -0.04534318      -0.15345263
Al       5.00000000      11.07500000       7.02500000      -0.60711547      -0.01515422       0.24011084
Al       7.02500000       9.05000000       7.02500000       0.07168567      -0.05909973       0.54909691
Al       7.02500000      11.07500000       5.00000000       0.31283593      -0.01626292      -0.61090579
Al       4.82120233       9.04396369       9.02717174      -0.00660522      -0.00093794       0.02920697
Al       4.79427249      11.06465652      11.09027169      -0.00605055       0.00046835      -0.02989951
Al       6.99758507       9.06207449      11.05786889      -0.01139643      -0.00209901       0.00987512
Al       6.97243535      11.07609517       9.07097033      -0.01430135      -0.00174908      -0.00703992
Al       5.00000000       9.05000000      13.10000000      -0.58259392      -0.03442998      -0.23210615
Al       5.00000000      11.07500000      15.12500000      -0.20662672      -0.01353289       0.15490157
Al       7.02500000       9.05000000      15.12500000       0.31601757      -0.05222273       0.60900072
Al       7.02500000      11.07500000      13.10000000       0.04323152       0.00295828      -0.54979824
Al       5.00000000      13.10000000       5.00000000      -0.21053175      -0.00024241      -0.15411025
Al       5.00000000      15.12500000       7.02500000      -0.63541374       0.01112194       0.24064831
Al       7.02500000      13.10000000       7.02500000       0.03169277      -0.00088062       0.57089511
Al       7.02500000      15.12500000       5.00000000       0.31003947      -0.00067846      -0.61251232
Al       4.78669774      13.09664061       9.03105680      -0.00614994       0.00070218       0.03141690
Al       4.78879492      15.12748608      11.09174556      -0.00504687      -0.00287718      -0.02822146
Al       6.95396767      13.09514837      11.05089699      -0.02054466       0.00051961       0.01618180
Al       6.95542380      15.12720939       9.06998040      -0.02214253      -0.00127140      -0.01121605
Al       5.00000000      13.10000000      13.10000000      -0.62890778      -0.01230961      -0.24857935
Al       5.00000000      15.12500000      15.12500000      -0.20952422      -0.00123767       0.15505752
Al       7.02500000      13.10000000      15.12500000       0.31300372      -0.00059182       0.61113797
Al       7.02500000      15.12500000      13.10000000      -0.03205148      -0.00151059      -0.51704550
Al       5.00000000      17.15000000       5.00000000      -0.20813346       0.01252744      -0.15459405
Al       5.00000000      19.17500000       7.02500000      -0.58500628       0.03508442       0.22482125
Al       7.02500000      17.15000000       7.02500000       0.04499651       0.00362864       0.55591218
Al       7.02500000      19.17500000       5.00000000       0.31457460       0.05248667      -0.60972247
Al       4.79275860      17.16054772       9.03272655      -0.00758104      -0.00148243       0.03279628
Al       4.81310009      19.18367747      11.09791082      -0.00586938      -0.00030431      -0.02809048
Al       6.96033624      17.15679739      11.05306394      -0.01254316      -0.00010067       0.01086473
Al       6.99490021      19.16658871       9.06787611      -0.00961760       0.00183147      -0.00424789
Al       5.00000000      17.15000000      13.10000000      -0.62208711       0.01154880      -0.23107219
Al       5.00000000      19.17500000      15.12500000      -0.19967763       0.04454582       0.15355192
Al       7.02500000      17.15000000      15.12500000       0.31437749       0.01359142       0.61037423
Al       7.02500000      19.17500000      13.10000000       0.08270183       0.05717240      -0.55930661
Al       5.00000000      21.20000000       5.00000000      -0.09242710      -0.44947873      -0.06651312
Al       5.00000000      23.22500000       7.02500000      -0.04541580       0.04541580       0.52273868
Al       7.02500000      21.20000000       7.02500000       0.15400919      -0.15400919       0.65481603
Al       7.02500000      23.22500000       5.00000000       0.44947873       0.09242710      -0.06651312
Al       4.88136479      21.17646177       9.04515815      -0.00804623       0.00460832       0.02809720
Al       4.98072263      23.24427737      11.07423725      -0.00664347       0.00664347      -0.05717682
Al       7.03419885      21.19080115      11.04454684      -0.01038766       0.01038766       0.00820689
Al       7.04853823      23.34363521       9.04515815      -0.00460832       0.00804623       0.02809720
Al       5.00000000      21.20000000      13.10000000      -0.47717019      -0.24534562      -0.36735525
Al       5.00000000      23.22500000      15.12500000       0.33261876      -0.33261876      -0.34155129
Al       7.02500000      21.20000000      15.12500000       0.31482632      -0.31482632       0.55672948
Al       7.02500000      23.22500000      13.10000000       0.24534562       0.47717019      -0.36735525
Al       9.05000000       5.00000000       5.00000000      -0.04440227      -0.19887776      -0.15220038
Al       9.05000000       7.02500000       7.02500000      -0.06399270       0.06755816       0.54735261
Al      11.07500000       5.00000000       7.02500000      -0.01081239      -0.61942311       0.22830590
Al      11.07500000       7.02500000       5.00000000      -0.01384652       0.31308699      -0.60898350
Al       9.04250399       4.81331084       9.02601689      -0.00142843      -0.00622272       0.02952111
Al       9.05271825       6.98637746      11.05712967      -0.00269571      -0.01034842       0.00917564
Al      11.06566862       4.79533686      11.09084832       0.00134909      -0.00620550      -0.03025476
Al      11.06991305       6.96380447       9.06960357      -0.00076317      -0.01517498      -0.00804864
Al       9.05000000       5.00000000      13.10000000      -0.03336134      -0.59452563      -0.22027603
Al       9.05000000       7.02500000      15.12500000      -0.05123090       0.31588874       0.60789181
Al      11.07500000       5.00000000      15.12500000      -0.01228155      -0.20613467       0.15425003
Al      11.07500000       7.02500000      13.10000000      -0.00250574       0.01246744      -0.52643484
Al       9.05000000       9.05000000       5.00000000      -0.05513426      -0.05632468      -0.66903094
Al       9.05000000      11.07500000       7.02500000      -0.11754880       0.00874472       0.41919736
Al      11.07500000       9.05000000       7.02500000      -0.01906331      -0.11945673       0.40988212
Al      11.07500000      11.07500000       5.00000000      -0.01963546      -0.02200194      -0.67231684
Al       9.05268618       9.05399621       9.05354751      -0.00614238      -0.00408498      -0.00437137
Al       9.05719075      11.09901845      11.07359175      -0.00970476      -0.00890171       0.01367190
Al      11.07275693       9.02851775      11.07150005      -0.00745847      -0.00707263       0.01233458
Al      11.08334359      11.08760407       9.06159881      -0.00354958       0.00024583      -0.00821337
Al       9.05000000       9.05000000      13.10000000      -0.10735125      -0.09126715      -0.44085529
Al       9.05000000      11.07500000      15.12500000      -0.05666492      -0.01763980       0.67030589
Al      11.07500000       9.05000000      15.12500000      -0.01600194      -0.05745385       0.66752033
Al      11.07500000      11.07500000      13.10000000      -0.02358958       0.00419883      -0.37580118
Al       9.05000000      13.10000000       5.00000000      -0.06078085      -0.00348903      -0.67464126
Al       9.05000000      15.12500000       7.02500000      -0.06821731       0.00088352       0.47278693
Al      11.07500000      13.10000000       7.02500000      -0.00192122       0.03753269       0.36534149
Al      11.07500000      15.12500000       5.00000000      -0.01834498       0.00087402      -0.67519965
Al       9.04094581      13.11112210       9.06072232      -0.00609256      -0.00209362      -0.00879209
Al       9.00494311      15.12512378      11.07489809      -0.00881889       0.00367281       0.01548535
Al      11.14002064      13.17412894      11.09040757      -0.00477147      -0.00639558       0.02164974
Al      11.10746475      15.12563852       9.08490985       0.02113127       0.00313510       0.00218940
Al       9.05000000      13.10000000      13.10000000      -0.12026142       0.01345773      -0.42336609
Al       9.05000000      15.12500000      15.12500000      -0.05825907       0.00020682       0.66894137
Al      11.07500000      13.10000000      15.12500000      -0.02957003      -0.01330429       0.69063575
Al      11.07500000      15.12500000      13.10000000       0.35355746       0.00900919      -0.48673637
Al       9.05000000      17.15000000       5.00000000      -0.05948037       0.01817141      -0.67386302
Al       9.05000000      19.17500000       7.02500000      -0.08584227       0.08584227       0.45449792
Al      11.07500000      17.15000000       7.02500000       0.00658399      -0.00658399       0.37346354
Al      11.07500000      19.17500000       5.00000000      -0.01817141       0.05948037      -0.67386302
Al       9.04838616      17.13891357       9.06086148      -0.00196017       0.00661617      -0.00363614
Al       9.07090290      19.15409710      11.07416163      -0.00447269       0.00447269       0.00839420
Al      11.14528671      17.07971329      11.08944380      -0.00898328       0.00898328       0.01998993
Al      11.08608643      19.17661384       9.06086148      -0.00661617       0.00196017      -0.00363614
Al       9.05000000      17.15000000      13.10000000      -0.10467069       0.00226433      -0.42587411
Al       9.05000000      19.17500000      15.12500000      -0.05395730       0.05395730       0.67079998
Al      11.07500000      17.15000000      15.12500000      -0.02889826       0.02889826       0.69068957
Al      11.07500000      19.17500000      13.10000000      -0.00226433       0.10467069      -0.42587411
Al       9.05000000      21.20000000       5.00000000      -0.05248667      -0.31457460      -0.60972247
Al       9.05000000      23.22500000       7.02500000      -0.03508442       0.58500628       0.22482125
Al      11.07500000      21.20000000       7.02500000      -0.00362864      -0.04499651       0.55591218
Al      11.07500000      23.22500000       5.00000000      -0.01252744       0.20813346      -0.15459405
Al       9.05841129      21.23009979       9.06787611      -0.00183147       0.00961760      -0.00424789
Al       9.04132253      23.41189991      11.09791082       0.00030431       0.00586938      -0.02809048
Al      11.06820261      21.26466376      11.05306394       0.00010067       0.01254316       0.01086473
Al      11.06445228      23.43224140       9.03272655       0.00148243       0.00758104       0.03279628
Al       9.05000000      21.20000000      13.10000000      -0.05717240      -0.08270183      -0.55930661
Al       9.05000000      23.22500000      15.12500000      -0.04454582       0.19967763       0.15355192
Al      11.07500000      21.20000000      15.12500000      -0.01359142      -0.31437749       0.61037423
Al      11.07500000      23.22500000      13.10000000      -0.01154880       0.62208711      -0.23107219
Al      13.10000000       5.00000000       5.00000000       0.00152120      -0.20891202      -0.15331855
Al      13.10000000       7.02500000       7.02500000       0.00133466      -0.00724211       0.53553828
Al      15.12500000       5.00000000       7.02500000       0.01194544      -0.62656734       0.24600630
Al      15.12500000       7.02500000       5.00000000       0.00155667       0.31174264      -0.60944106
Al      13.09736915       4.78918120       9.03190392       0.00379862      -0.00507821       0.03099264
Al      13.09764442       6.95853106      11.05194573       0.00342407      -0.02157829       0.01514807
Al      15.12698041       4.78930843      11.09244737       0.00138607      -0.00365085      -0.02919176
Al      15.12781524       6.95730458       9.07154866       0.00299348      -0.02211504      -0.01199658
Al      13.10000000       5.00000000      13.10000000      -0.01072042      -0.62261040      -0.25103667
Al      13.10000000       7.02500000      15.12500000       0.00106927       0.31272093       0.61013380
Al      15.12500000       5.00000000      15.12500000       0.00061538      -0.20832812       0.15347568
Al      15.12500000       7.02500000      13.10000000       0.00084360      -0.00127303      -0.54155793
Al      13.10000000       9.05000000       5.00000000       0.00008938      -0.06179134      -0.66980408
Al      13.10000000      11.07500000       7.02500000      -0.00718012       0.04820213       0.41562404
Al      15.12500000       9.05000000       7.02500000       0.00342208      -0.13543725       0.40826917
Al      15.12500000      11.07500000       5.00000000       0.00449750      -0.02301478      -0.67222991
Al      13.09967642       9.02236117       9.05011188      -0.00102820      -0.01218920      -0.01238141
Al      13.10017873      11.04632485      11.07617398      -0.00029976       0.00116543       0.01569731
Al      15.12762701       9.02089719      11.07140949       0.00627081      -0.01100706       0.01649474
Al      15.11283042      11.08312495       9.06047816       0.00285575       0.00465576      -0.00930974
Al      13.10000000       9.05000000      13.10000000       0.00086605      -0.19972946      -0.35333712
Al      13.10000000      11.07500000      15.12500000      -0.00052735      -0.02031852       0.66615369
Al      15.12500000       9.05000000      15.12500000       0.00209279      -0.05884555       0.66779159
Al      15.12500000      11.07500000      13.10000000      -0.00686617      -0.00516338      -0.36369060
Al      13.10000000      13.10000000       5.00000000      -0.00096615      -0.00223704      -0.67517279
Al      13.10000000      15.12500000       7.02500000      -0.01018815       0.01018815       0.07977237
Al      15.12500000      13.10000000       7.02500000      -0.03681844       0.03681844       0.35590882
Al      15.12500000      15.12500000       5.00000000       0.00223704       0.00096615      -0.67517279
Al      13.09788381      13.14175056       9.08594535       0.00057814       0.02025443       0.00039274
Al      15.05048914      13.17451086      11.09105788       0.00687437      -0.00687437       0.02209557
Al      15.08324944      15.12711619       9.08594535      -0.02025443      -0.00057814       0.00039274
Al      13.10000000      13.10000000      13.10000000      -0.01666379       0.38403600      -0.47081619
Al      13.10000000      15.12500000      15.12500000      -0.00081642       0.00081642       0.83297660
Al      15.12500000      13.10000000      15.12500000       0.01363902      -0.01363902       0.68977526
Al      15.12500000      15.12500000      13.10000000      -0.38403600       0.01666379      -0.47081619
Al      13.10000000      17.15000000       5.00000000      -0.00087402       0.01834498      -0.67519965
Al      13.10000000      19.17500000       7.02500000      -0.00088352       0.06821731       0.47278693
Al      15.12500000      17.15000000       7.02500000      -0.03753269       0.00192122       0.36534149
Al      15.12500000      19.17500000       5.00000000       0.00348903       0.06078085      -0.67464126
Al      13.09936148      17.11753525       9.08490985      -0.00313510      -0.02113127       0.00218940
Al      13.09987622      19.22005689      11.07489809      -0.00367281       0.00881889       0.01548535
Al      15.05087106      17.08497936      11.09040757       0.00639558       0.00477147       0.02164974
Al      15.11387790      19.18405419       9.06072232       0.00209362       0.00609256      -0.00879209
Al      13.10000000      17.15000000      13.10000000      -0.00900919      -0.35355746      -0.48673637
Al      13.10000000      19.17500000      15.12500000      -0.00020682       0.05825907       0.66894137
Al      15.12500000      17.15000000      15.12500000       0.01330429       0.02957003       0.69063575
Al      15.12500000      19.17500000      13.10000000      -0.01345773       0.12026142      -0.42336609
Al      13.10000000      21.20000000       5.00000000       0.00067846      -0.31003947      -0.61251232
Al      13.10000000      23.22500000       7.02500000      -0.01112194       0.63541374       0.24064831
Al      15.12500000      21.20000000       7.02500000       0.00088062      -0.03169277       0.57089511
Al      15.12500000      23.22500000       5.00000000       0.00024241       0.21053175      -0.15411025
Al      13.09779061      21.26957620       9.06998040       0.00127140       0.02214253      -0.01121605
Al      13.09751392      23.43620508      11.09174556       0.00287718       0.00504687      -0.02822146
Al      15.12985163      21.27103233      11.05089699      -0.00051961       0.02054466       0.01618180
Al      15.12835939      23.43830226       9.03105680      -0.00070218       0.00614994       0.03141690
Al      13.10000000      21.20000000      13.10000000       0.00151059       0.03205148      -0.51704550
Al      13.10000000      23.22500000      15.12500000       0.00123767       0.20952422       0.15505752
Al      15.12500000      21.20000000      15.12500000       0.00059182      -0.31300372       0.61113797
Al      15.12500000      23.22500000      13.10000000       0.01230961       0.62890778      -0.24857935
Al      17.15000000       5.00000000       5.00000000       0.01398145      -0.20548965      -0.15303108
Al      17.15000000       7.02500000       7.02500000       0.00463172       0.02786075       0.53897895
Al      19.17500000       5.00000000       7.02500000       0.03495364      -0.58742904       0.22639345
Al      19.17500000       7.02500000       5.00000000       0.05262611       0.31598708      -0.60643153
Al      17.15917164       4.79426184       9.03350620       0.00314892      -0.00462641       0.03203457
Al      17.15445063       6.96413279      11.05374847       0.00519299      -0.01372597       0.01071987
Al      19.18222950       4.81469259      11.09799926       0.00331071      -0.00253802      -0.02848247
Al      19.16864641       6.99123660       9.06753512       0.00559009      -0.01032121      -0.00791535
Al      17.15000000       5.00000000      13.10000000       0.01182445      -0.61546818      -0.23454099
Al      17.15000000       7.02500000      15.12500000       0.01572371       0.31428949       0.60818744
Al      19.17500000       5.00000000      15.12500000       0.04517228      -0.19736135       0.15151967
Al      19.17500000       7.02500000      13.10000000       0.06210359       0.07047535      -0.55231151
Al      17.15000000       9.05000000       5.00000000       0.01946871      -0.05937941      -0.66804518
Al      17.15000000      11.07500000       7.02500000       0.00964230      -0.00964230       0.36966514
Al      19.17500000       9.05000000       7.02500000       0.10461634      -0.10461634       0.43434274
Al      19.17500000      11.07500000       5.00000000       0.05937941      -0.01946871      -0.66804518
Al      17.14388315       9.04070513       9.05402898       0.01257575      -0.01004495      -0.00795558
Al      17.12824263      11.09675737      11.07362730       0.00822682      -0.00822682       0.01674743
Al      19.16846980       9.05653020      11.07250919       0.00802058      -0.00802058       0.00870940
Al      19.18429487      11.08111685       9.05402898       0.01004495      -0.01257575      -0.00795558
Al      17.15000000       9.05000000      13.10000000       0.01325106      -0.12341441      -0.40448054
Al      17.15000000      11.07500000      15.12500000       0.01959841      -0.01959841       0.66783849
Al      19.17500000       9.05000000      15.12500000       0.05525522      -0.05525522       0.66707849
Al      19.17500000      11.07500000      13.10000000       0.12341441      -0.01325106      -0.40448054
Al      17.15000000      13.10000000       5.00000000       0.02301478      -0.00449750      -0.67222991
Al      17.15000000      15.12500000       7.02500000      -0.04820213       0.00718012       0.41562404
Al      19.17500000      13.10000000       7.02500000       0.13543725      -0.00342208       0.40826917
Al      19.17500000      15.12500000       5.00000000       0.06179134      -0.00008938      -0.66980408
Al      17.14187505      13.11216958       9.06047816      -0.00465576      -0.00285575      -0.00930974
Al      17.17867515      15.12482127      11.07617398      -0.00116543       0.00029976       0.01569731
Al      19.20410281      13.09737299      11.07140949       0.01100706      -0.00627081       0.01649474
Al      19.20263883      15.12532358       9.05011188       0.01218920       0.00102820      -0.01238141
Al      17.15000000      13.10000000      13.10000000       0.00516338       0.00686617      -0.36369060
Al      17.15000000      15.12500000      15.12500000       0.02031852       0.00052735       0.66615369
Al      19.17500000      13.10000000      15.12500000       0.05884555      -0.00209279       0.66779159
Al      19.17500000      15.12500000      13.10000000       0.19972946      -0.00086605      -0.35333712
Al      17.15000000      17.15000000       5.00000000       0.02200194       0.01963546      -0.67231684
Al      17.15000000      19.17500000       7.02500000      -0.00874472       0.11754880       0.41919736
Al      19.17500000      17.15000000       7.02500000       0.11945673       0.01906331       0.40988212
Al      19.17500000      19.17500000       5.00000000       0.05632468       0.05513426      -0.66903094
Al      17.13739593      17.14165641       9.06159881      -0.00024583       0.00354958      -0.00821337
Al      17.12598155      19.16780925      11.07359175       0.00890171       0.00970476       0.01367190
Al      19.19648225      17.15224307      11.07150005       0.00707263       0.00745847       0.01233458
Al      19.17100379      19.17231382       9.05354751       0.00408498       0.00614238      -0.00437137
Al      17.15000000      17.15000000      13.10000000      -0.00419883       0.02358958      -0.37580118
Al      17.15000000      19.17500000      15.12500000       0.01763980       0.05666492       0.67030589
Al      19.17500000      17.15000000      15.12500000       0.05745385       0.01600194       0.66752033
Al      19.17500000      19.17500000      13.10000000       0.09126715       0.10735125      -0.44085529
Al      17.15000000      21.20000000       5.00000000       0.01626292      -0.31283593      -0.61090579
Al      17.15000000      23.22500000       7.02500000       0.01515422       0.60711547       0.24011084
Al      19.17500000      21.20000000       7.02500000       0.05909973      -0.07168567       0.54909691
Al      19.17500000      23.22500000       5.00000000       0.04534318       0.19867355      -0.15345263
Al      17.14890483      21.25256465       9.07097033       0.00174908       0.01430135      -0.00703992
Al      17.16034348      23.43072751      11.09027169      -0.00046835       0.00605055      -0.02989951
Al      19.16292551      21.22741493      11.05786889       0.00209901       0.01139643       0.00987512
Al      19.18103631      23.40379767       9.02717174       0.00093794       0.00660522       0.02920697
Al      17.15000000      21.20000000      13.10000000      -0.00295828      -0.04323152      -0.54979824
Al      17.15000000      23.22500000      15.12500000       0.01353289       0.20662672       0.15490157
Al      19.17500000      21.20000000      15.12500000       0.05222273      -0.31601757       0.60900072
Al      19.17500000      23.22500000      13.10000000       0.03442998       0.58259392      -0.23210615
Al      21.20000000       5.00000000       5.00000000      -0.45013348      -0.09007017      -0.06454587
Al      21.20000000       7.02500000       7.02500000      -0.14903979       0.14903979       0.65901549
Al      23.22500000       5.00000000       7.02500000       0.04344907      -0.04344907       0.52097413
Al      23.22500000       7.02500000       5.00000000       0.09007017       0.45013348      -0.06454587
Al      21.17786784       4.87814547       9.04576531       0.00537955      -0.00425965       0.02664385
Al      21.19627666       7.02872334      11.04365213       0.01047763      -0.01047763       0.00948909
Al      23.24771030       4.97728970      11.07600153       0.00341577      -0.00341577      -0.05898215
Al      23.34685453       7.04713216       9.04576531       0.00425965      -0.00537955       0.02664385
Al      21.20000000       5.00000000      13.10000000      -0.24627240      -0.47979143      -0.36782191
Al      21.20000000       7.02500000      15.12500000      -0.31538551       0.31538551       0.55354706
Al      23.22500000       5.00000000      15.12500000      -0.33396746       0.33396746      -0.34406786
Al      23.22500000       7.02500000      13.10000000       0.47979143       0.24627240      -0.36782191
Al      21.20000000       9.05000000       5.00000000      -0.31598708      -0.05262611      -0.60643153
Al      21.20000000      11.07500000       7.02500000      -0.02786075      -0.00463172       0.53897895
Al      23.22500000       9.05000000       7.02500000       0.58742904      -0.03495364       0.22639345
Al      23.22500000      11.07500000       5.00000000       0.20548965      -0.01398145      -0.15303108
Al      21.23376340       9.05635359       9.06753512       0.01032121      -0.00559009      -0.00791535
Al      21.26086721      11.07054937      11.05374847       0.01372597      -0.00519299       0.01071987
Al      23.41030741       9.04277050      11.09799926       0.00253802      -0.00331071      -0.02848247
Al      23.43073816      11.06582836       9.03350620       0.00462641      -0.00314892       0.03203457
Al      21.20000000       9.05000000      13.10000000      -0.07047535      -0.06210359      -0.55231151
Al      21.20000000      11.07500000      15.12500000      -0.31428949      -0.01572371       0.60818744
Al      23.22500000       9.05000000      15.12500000       0.19736135      -0.04517228       0.15151967
Al      23.22500000      11.07500000      13.10000000       0.61546818      -0.01182445      -0.23454099
Al      21.20000000      13.10000000       5.00000000      -0.31174264      -0.00155667      -0.60944106
Al      21.20000000      15.12500000       7.02500000       0.00724211      -0.00133466       0.53553828
Al      23.22500000      13.10000000       7.02500000       0.62656734      -0.01194544       0.24600630
Al      23.22500000      15.12500000       5.00000000       0.20891202      -0.00152120      -0.15331855
Al      21.26769542      13.09718476       9.07154866       0.02211504      -0.00299348      -0.01199658
Al      21.26646894      15.12735558      11.05194573       0.02157829      -0.00342407       0.01514807
Al      23.43569157      13.09801959      11.09244737       0.00365085      -0.00138607      -0.02919176
Al      23.43581880      15.12763085       9.03190392       0.00507821      -0.00379862       0.03099264
Al      21.20000000      13.10000000      13.10000000       0.00127303      -0.00084360      -0.54155793
Al      21.20000000      15.12500000      15.12500000      -0.31272093      -0.00106927       0.61013380
Al      23.22500000      13.10000000      15.12500000       0.20832812      -0.00061538       0.15347568
Al      23.22500000      15.12500000      13.10000000       0.62261040       0.01072042      -0.25103667
Al      21.20000000      17.15000000       5.00000000      -0.31308699       0.01384652      -0.60898350
Al      21.20000000      19.17500000       7.02500000      -0.06755816       0.06399270       0.54735261
Al      23.22500000      17.15000000       7.02500000       0.61942311       0.01081239       0.22830590
Al      23.22500000      19.17500000       5.00000000       0.19887776       0.04440227      -0.15220038
Al      21.26119553      17.15508695       9.06960357       0.01517498       0.00076317      -0.00804864
Al      21.23862254      19.17228175      11.05712967       0.01034842       0.00269571       0.00917564
Al      23.42966314      17.15933138      11.09084832       0.00620550      -0.00134909      -0.03025476
Al      23.41168916      19.18249601       9.02601689       0.00622272       0.00142843       0.02952111
Al      21.20000000      17.15000000      13.10000000      -0.01246744       0.00250574      -0.52643484