299
Lattice="28.224999999999998 0.0 0.0 0.0 28.224999999999998 0.0 0.0 0.0 20.125" Properties=species:S:1:pos:R:3:forces:R:3 energy=-16469.309767752857 pbc="T T T"
Al       5.00000000       5.00000000       5.00000000       0.33222556       0.33220542       0.34459459
Al       5.00000000       7.02500000       7.02500000      -0.48231824       0.24388699       0.36516621
Al       7.02500000       5.00000000       7.02500000       0.24138052      -0.48281909       0.35956365
Al       7.02500000       7.02500000       5.00000000       0.31165086       0.31202677      -0.55392999
Al       4.97775003       4.97720922       9.04863977      -0.00887058      -0.00739326       0.07523980
Al       4.88352631       7.04837352      11.07923179      -0.01424288      -0.00806575      -0.03731309
Al       7.04695647       4.87411685      11.07991984      -0.01061567      -0.01318618      -0.03785830
Al       7.02903494       7.02716296       9.08156048      -0.02010046      -0.01656445      -0.00806700
Al       5.00000000       5.00000000      13.10000000      -0.04658831      -0.04284956      -0.51887870
Al       5.00000000       7.02500000      15.12500000      -0.09408827       0.44815170       0.06379270
Al       7.02500000       5.00000000      15.12500000       0.44800431      -0.09468193       0.06258698
Al       7.02500000       7.02500000      13.10000000       0.14661201       0.14737486      -0.65777093
Al       5.00000000       9.05000000       5.00000000      -0.20227571      -0.04420238      -0.15216032
Al       5.00000000      11.07500000       7.02500000      -0.60436905      -0.01313700       0.23403840
Al       7.02500000       9.05000000       7.02500000       0.07075542      -0.05707273       0.54667891
Al       7.02500000      11.07500000       5.00000000       0.31521350      -0.01048594      -0.61033574
Al       4.82153776       9.04389398       9.02662974      -0.01384517      -0.00191203       0.04249437
Al       4.79462141      11.06462697      11.09082934      -0.01180703       0.00120764      -0.04162334
Al       6.99802853       9.06199488      11.05748342      -0.02041868      -0.00099918       0.01564695
Al       6.97284458      11.07610531       9.07118127      -0.01908122       0.00261476      -0.01016250
Al       5.00000000       9.05000000      13.10000000      -0.58101908      -0.03494650      -0.22670517
Al       5.00000000      11.07500000      15.12500000      -0.20770117      -0.01145418       0.15329414
Al       7.02500000       9.05000000      15.12500000       0.31458395      -0.04944057       0.60848452
Al       7.02500000      11.07500000      13.10000000       0.04649266       0.00804254      -0.54560686
Al       5.00000000      13.10000000       5.00000000      -0.20965159       0.00173903      -0.15259708
Al       5.00000000      15.12500000       7.02500000      -0.63036809       0.01197020       0.23365529
Al       7.02500000      13.10000000       7.02500000       0.03750921       0.00312844       0.56527590
Al       7.02500000      15.12500000       5.00000000       0.31578781      -0.00122354      -0.61020059
Al       4.78707807      13.09673513       9.03048708      -0.01055058       0.00166711       0.04374443
Al       4.78913056      15.12758077      11.09221641      -0.00823922      -0.00206961      -0.03925154
Al       6.95405452      13.09521851      11.05077364      -0.01748944       0.00419060       0.01997155
Al       6.95554067      15.12727860       9.07001150      -0.01994832      -0.00149268      -0.01284853
Al       5.00000000      13.10000000      13.10000000      -0.62414811      -0.01019935      -0.24168171
Al       5.00000000      15.12500000      15.12500000      -0.20796164      -0.00090448       0.15294530
Al       7.02500000      13.10000000      15.12500000       0.31917525       0.00325066       0.60879600
Al       7.02500000      15.12500000      13.10000000      -0.02356544      -0.00103124      -0.51253265
Al       5.00000000      17.15000000       5.00000000      -0.20808961       0.01132352      -0.15262194
Al       5.00000000      19.17500000       7.02500000      -0.58229041       0.03537713       0.21927730
Al       7.02500000      17.15000000       7.02500000       0.04895994       0.00089128       0.55155109
Al       7.02500000      19.17500000       5.00000000       0.31499596       0.04934320      -0.60846701
Al       4.79308251      17.16072353       9.03209414      -0.01219737      -0.00178823       0.04562274
Al       4.81335101      19.18385424      11.09837041      -0.01113267       0.00005188      -0.03936112
Al       6.96060057      17.15695616      11.05266376      -0.01459289      -0.00345952       0.01746855
Al       6.99516720      19.16667843       9.06821576      -0.01566812       0.00073739      -0.00869627
Al       5.00000000      17.15000000      13.10000000      -0.61690355       0.01160813      -0.22531199
Al       5.00000000      19.17500000      15.12500000      -0.20131169       0.04385289       0.15096426
Al       7.02500000      17.15000000      15.12500000       0.31894097       0.00985213       0.60774792
Al       7.02500000      19.17500000      13.10000000       0.08446957       0.05528884      -0.55745202
Al       5.00000000      21.20000000       5.00000000      -0.09453207      -0.44842805      -0.06371455
Al       5.00000000      23.22500000       7.02500000      -0.04533240       0.04533240       0.51963265
Al       7.02500000      21.20000000       7.02500000       0.15278318      -0.15278318       0.65252026
Al       7.02500000      23.22500000       5.00000000       0.44842805       0.09453207      -0.06371455
Al       4.88170730      21.17631017       9.04459634      -0.01364948       0.00766005       0.04093931
Al       4.98109249      23.24390751      11.07458416      -0.00761897       0.00761897      -0.07206663
Al       7.03426668      21.19073332      11.04416736      -0.01461298       0.01461298       0.01259913
Al       7.04868983      23.34329270       9.04459634      -0.00766005       0.01364948       0.04093931
Al       5.00000000      21.20000000      13.10000000      -0.47424730      -0.24385873      -0.36296725
Al       5.00000000      23.22500000      15.12500000       0.33339721      -0.33339721      -0.34365446
Al       7.02500000      21.20000000      15.12500000       0.31320289      -0.31320289       0.55385353
Al       7.02500000      23.22500000      13.10000000       0.24385873       0.47424730      -0.36296725
Al       9.05000000       5.00000000       5.00000000      -0.04459866      -0.20294924      -0.15115723
Al       9.05000000       7.02500000       7.02500000      -0.06379680       0.06678713       0.54406247
Al      11.07500000       5.00000000       7.02500000      -0.01154883      -0.61807272       0.22066610
Al      11.07500000       7.02500000       5.00000000      -0.01094109       0.31543757      -0.60936170
Al       9.04257837       4.81349425       9.02545057      -0.00443439      -0.01447967       0.04243631
Al       9.05285168       6.98655576      11.05675233      -0.00516241      -0.01784867       0.01556236
Al      11.06565444       4.79565932      11.09144871      -0.00037108      -0.01433537      -0.04112106
Al      11.06994723       6.96408328       9.06983027      -0.00012876      -0.01996060      -0.01221377
Al       9.05000000       5.00000000      13.10000000      -0.03485034      -0.59363136      -0.21356039
Al       9.05000000       7.02500000      15.12500000      -0.04988841       0.31470406       0.60756810
Al      11.07500000       5.00000000      15.12500000      -0.01188716      -0.20812055       0.15314339
Al      11.07500000       7.02500000      13.10000000      -0.00095378       0.01484267      -0.52021999
Al       9.05000000       9.05000000       5.00000000      -0.04982746      -0.04904131      -0.66993991
Al       9.05000000      11.07500000       7.02500000      -0.10856351       0.01809947       0.41183812
Al      11.07500000       9.05000000       7.02500000      -0.01354446      -0.10854385       0.40131528
Al      11.07500000      11.07500000       5.00000000      -0.01033994      -0.00936090      -0.66851641
Al       9.05298605       9.05405172       9.05417331      -0.00695425      -0.00052238      -0.01468901
Al       9.05758254      11.09884201      11.07305438      -0.00582614       0.00422582       0.02502342
Al      11.07264718       9.02867683      11.07101023       0.00001337       0.00045198       0.02409166
Al      11.08364612      11.08773519       9.06181820       0.00140556       0.01210911      -0.01667795
Al       9.05000000       9.05000000      13.10000000      -0.10319113      -0.08517715      -0.43501169
Al       9.05000000      11.07500000      15.12500000      -0.04650170      -0.00733839       0.66841103
Al      11.07500000       9.05000000      15.12500000      -0.00957018      -0.04608415       0.66654497
Al      11.07500000      11.07500000      13.10000000      -0.01263608       0.02032421      -0.36544995
Al       9.05000000      13.10000000       5.00000000      -0.04879404       0.00197784      -0.67116832
Al       9.05000000      15.12500000       7.02500000      -0.05671905      -0.00026168       0.46458456
Al      11.07500000      13.10000000       7.02500000       0.00973931       0.04519596       0.35346596
Al      11.07500000      15.12500000       5.00000000      -0.00723769      -0.00183065      -0.66774469
Al       9.04126664      13.11111138       9.06086488       0.00070438       0.00442011      -0.01315321
Al       9.00518388      15.12529286      11.07455413      -0.00001631       0.00049570       0.02584853
Al      11.14062056      13.17418032      11.09004187       0.00130611       0.00431792       0.03358660
Al      11.10746532      15.12566559       9.08479870       0.03362207      -0.00029449      -0.00183440
Al       9.05000000      13.10000000      13.10000000      -0.10518743       0.02091071      -0.41669258
Al       9.05000000      15.12500000      15.12500000      -0.04294980      -0.00129338       0.66284784
Al      11.07500000      13.10000000      15.12500000      -0.01656603      -0.00445478       0.68125562
Al      11.07500000      15.12500000      13.10000000       0.36471525       0.00631415      -0.47308179
Al       9.05000000      17.15000000       5.00000000      -0.04951117       0.01132895      -0.67120622
Al       9.05000000      19.17500000       7.02500000      -0.08040734       0.08040734       0.44924514
Al      11.07500000      17.15000000       7.02500000       0.01623151      -0.01623151       0.36338082
Al      11.07500000      19.17500000       5.00000000      -0.01132895       0.04951117      -0.67120622
Al       9.04859601      17.13916036       9.06126494       0.00298051      -0.00207756      -0.01155086
Al       9.07100833      19.15399167      11.07327371      -0.00105646       0.00105646       0.02334366
Al      11.14553116      17.07946884      11.08893376      -0.00036323       0.00036323       0.03320686
Al      11.08583964      19.17640399       9.06126494       0.00207756      -0.00298051      -0.01155086
Al       9.05000000      17.15000000      13.10000000      -0.09224268      -0.00478084      -0.41981460
Al       9.05000000      19.17500000      15.12500000      -0.04639220       0.04639220       0.66855363
Al      11.07500000      17.15000000      15.12500000      -0.01749317       0.01749317       0.68261612
Al      11.07500000      19.17500000      13.10000000       0.00478084       0.09224268      -0.41981460
Al       9.05000000      21.20000000       5.00000000      -0.04934320      -0.31499596      -0.60846701
Al       9.05000000      23.22500000       7.02500000      -0.03537713       0.58229041       0.21927730
Al      11.07500000      21.20000000       7.02500000      -0.00089128      -0.04895994       0.55155109
Al      11.07500000      23.22500000       5.00000000      -0.01132352       0.20808961      -0.15262194
Al       9.05832157      21.22983280       9.06821576      -0.00073739       0.01566812      -0.00869627
Al       9.04114576      23.41164899      11.09837041      -0.00005188       0.01113267      -0.03936112
Al      11.06804384      21.26439943      11.05266376       0.00345952       0.01459289       0.01746855
Al      11.06427647      23.43191749       9.03209414       0.00178823       0.01219737       0.04562274
Al       9.05000000      21.20000000      13.10000000      -0.05528884      -0.08446957      -0.55745202
Al       9.05000000      23.22500000      15.12500000      -0.04385289       0.20131169       0.15096426
Al      11.07500000      21.20000000      15.12500000      -0.00985213      -0.31894097       0.60774792
Al      11.07500000      23.22500000      13.10000000      -0.01160813       0.61690355      -0.22531199
Al      13.10000000       5.00000000       5.00000000       0.00119227      -0.21015240      -0.15314662
Al      13.10000000       7.02500000       7.02500000       0.00072632      -0.00203192       0.52800094
Al      15.12500000       5.00000000       7.02500000       0.00982901      -0.62542249       0.23710418
Al      15.12500000       7.02500000       5.00000000      -0.00150155       0.31588200      -0.61003739
Al      13.09719741       4.78957173       9.03129399       0.00296026      -0.01332681       0.04286421
Al      13.09757822       6.95855700      11.05186792       0.00284819      -0.02033323       0.01974699
Al      15.12660930       4.78967151      11.09297018       0.00225071      -0.01189481      -0.03932180
Al      15.12737491       6.95743726       9.07155373       0.00241150      -0.02237503      -0.01445734
Al      13.10000000       5.00000000      13.10000000      -0.01178961      -0.62046797      -0.24149167
Al      13.10000000       7.02500000      15.12500000       0.00173619       0.31687435       0.60975595
Al      15.12500000       5.00000000      15.12500000      -0.00042764      -0.20937159       0.15297638
Al      15.12500000       7.02500000      13.10000000      -0.00238224       0.00292651      -0.53347674
Al      13.10000000       9.05000000       5.00000000       0.00179990      -0.04816161      -0.66809324
Al      13.10000000      11.07500000       7.02500000      -0.00444609       0.06292654       0.40152519
Al      15.12500000       9.05000000       7.02500000      -0.00264501      -0.12135626       0.39898139
Al      15.12500000      11.07500000       5.00000000      -0.00201066      -0.00877549      -0.66689964
Al      13.09950294       9.02268586       9.05030430       0.00173210      -0.00338268      -0.01890615
Al      13.10019910      11.04685146      11.07584108       0.00127835       0.01098415       0.03019841
Al      15.12744326       9.02121041      11.07115450       0.00020971      -0.00166632       0.02512353
Al      15.11255866      11.08380905       9.06063332      -0.00270829       0.01167375      -0.01846111
Al      13.10000000       9.05000000      13.10000000       0.00178940      -0.18402405      -0.34481485
Al      13.10000000      11.07500000      15.12500000       0.00223123      -0.00316741       0.65851854
Al      15.12500000       9.05000000      15.12500000      -0.00273996      -0.04550388       0.66623005
Al      15.12500000      11.07500000      13.10000000      -0.01607635       0.01287150      -0.35074348
Al      13.10000000      13.10000000       5.00000000       0.00235708       0.00508913      -0.66585422
Al      13.10000000      15.12500000       7.02500000      -0.00659962       0.00659962       0.06820315
Al      15.12500000      13.10000000       7.02500000      -0.04530955       0.04530955       0.33969436
Al      15.12500000      15.12500000       5.00000000      -0.00508913      -0.00235708      -0.66585422
Al      13.09808550      13.14135407       9.08581292       0.00052584       0.03586142      -0.00672348
Al      15.05031600      13.17468400      11.09065515      -0.00279400       0.00279400       0.03775265
Al      15.08364593      15.12691450       9.08581292      -0.03586142      -0.00052584      -0.00672348
Al      13.10000000      13.10000000      13.10000000      -0.01303125       0.39266450      -0.45377188
Al      13.10000000      15.12500000      15.12500000       0.00231492      -0.00231492       0.82044436
Al      15.12500000      13.10000000      15.12500000       0.00440767      -0.00440767       0.67877922
Al      15.12500000      15.12500000      13.10000000      -0.39266450       0.01303125      -0.45377188
Al      13.10000000      17.15000000       5.00000000       0.00183065       0.00723769      -0.66774469
Al      13.10000000      19.17500000       7.02500000       0.00026168       0.05671905       0.46458456
Al      15.12500000      17.15000000       7.02500000      -0.04519596      -0.00973931       0.35346596
Al      15.12500000      19.17500000       5.00000000      -0.00197784       0.04879404      -0.67116832
Al      13.09933441      17.11753468       9.08479870       0.00029449      -0.03362207      -0.00183440
Al      13.09970714      19.21981612      11.07455413      -0.00049570       0.00001631       0.02584853
Al      15.05081968      17.08437944      11.09004187      -0.00431792      -0.00130611       0.03358660
Al      15.11388862      19.18373336       9.06086488      -0.00442011      -0.00070438      -0.01315321
Al      13.10000000      17.15000000      13.10000000      -0.00631415      -0.36471525      -0.47308179
Al      13.10000000      19.17500000      15.12500000       0.00129338       0.04294980       0.66284784
Al      15.12500000      17.15000000      15.12500000       0.00445478       0.01656603       0.68125562
Al      15.12500000      19.17500000      13.10000000      -0.02091071       0.10518743      -0.41669258
Al      13.10000000      21.20000000       5.00000000       0.00122354      -0.31578781      -0.61020059
Al      13.10000000      23.22500000       7.02500000      -0.01197020       0.63036809       0.23365529
Al      15.12500000      21.20000000       7.02500000      -0.00312844      -0.03750921       0.56527590
Al      15.12500000      23.22500000       5.00000000      -0.00173903       0.20965159      -0.15259708
Al      13.09772140      21.26945933       9.07001150       0.00149268       0.01994832      -0.01284853
Al      13.09741923      23.43586944      11.09221641       0.00206961       0.00823922      -0.03925154
Al      15.12978149      21.27094548      11.05077364      -0.00419060       0.01748944       0.01997155
Al      15.12826487      23.43792193       9.03048708      -0.00166711       0.01055058       0.04374443
Al      13.10000000      21.20000000      13.10000000       0.00103124       0.02356544      -0.51253265
Al      13.10000000      23.22500000      15.12500000       0.00090448       0.20796164       0.15294530
Al      15.12500000      21.20000000      15.12500000      -0.00325066      -0.31917525       0.60879600
Al      15.12500000      23.22500000      13.10000000       0.01019935       0.62414811      -0.24168171
Al      17.15000000       5.00000000       5.00000000       0.01244950      -0.20898865      -0.15307674
Al      17.15000000       7.02500000       7.02500000       0.00018907       0.02882633       0.53342882
Al      19.17500000       5.00000000       7.02500000       0.03594129      -0.58883706       0.22116695
Al      19.17500000       7.02500000       5.00000000       0.05084753       0.31352667      -0.60815860
Al      17.15877321       4.79441684       9.03282333       0.00528440      -0.01334535       0.04524673
Al      17.15402788       6.96445958      11.05349452       0.00494402      -0.02054201       0.01600667
Al      19.18194838       4.81469503      11.09850619       0.00704031      -0.01040474      -0.04004116
Al      19.16831263       6.99159137       9.06783913       0.00934941      -0.02120102      -0.01045509
Al      17.15000000       5.00000000      13.10000000       0.01065845      -0.61465673      -0.22668152
Al      17.15000000       7.02500000      15.12500000       0.01193132       0.31514311       0.60890533
Al      19.17500000       5.00000000      15.12500000       0.04519908      -0.20150467       0.15033616
Al      19.17500000       7.02500000      13.10000000       0.06194261       0.06789768      -0.54893119
Al      17.15000000       9.05000000       5.00000000       0.01084615      -0.04920783      -0.66923915
Al      17.15000000      11.07500000       7.02500000      -0.00390443       0.00390443       0.35794583
Al      19.17500000       9.05000000       7.02500000       0.09991028      -0.09991028       0.42844639
Al      19.17500000      11.07500000       5.00000000       0.04920783      -0.01084615      -0.66923915
Al      17.14366776       9.04111774       9.05439168       0.00410815      -0.00590408      -0.01635177
Al      17.12778936      11.09721064      11.07323509      -0.00168551       0.00168551       0.02910323
Al      19.16810268       9.05689732      11.07184215       0.00881286      -0.00881286       0.02052708
Al      19.18388226      11.08133224       9.05439168       0.00590408      -0.00410815      -0.01635177
Al      17.15000000       9.05000000      13.10000000       0.00493799      -0.11360408      -0.39570955
Al      17.15000000      11.07500000      15.12500000       0.00705256      -0.00705256       0.66515022
Al      19.17500000       9.05000000      15.12500000       0.05026773      -0.05026773       0.66908694
Al      19.17500000      11.07500000      13.10000000       0.11360408      -0.00493799      -0.39570955
Al      17.15000000      13.10000000       5.00000000       0.00877549       0.00201066      -0.66689964
Al      17.15000000      15.12500000       7.02500000      -0.06292654       0.00444609       0.40152519
Al      19.17500000      13.10000000       7.02500000       0.12135626       0.00264501       0.39898139
Al      19.17500000      15.12500000       5.00000000       0.04816161      -0.00179990      -0.66809324
Al      17.14119095      13.11244134       9.06063332      -0.01167375       0.00270829      -0.01846111
Al      17.17814854      15.12480090      11.07584108      -0.01098415      -0.00127835       0.03019841
Al      19.20378959      13.09755674      11.07115450       0.00166632      -0.00020971       0.02512353
Al      19.20231414      15.12549706       9.05030430       0.00338268      -0.00173210      -0.01890615
Al      17.15000000      13.10000000      13.10000000      -0.01287150       0.01607635      -0.35074348
Al      17.15000000      15.12500000      15.12500000       0.00316741      -0.00223123       0.65851854
Al      19.17500000      13.10000000      15.12500000       0.04550388       0.00273996       0.66623005
Al      19.17500000      15.12500000      13.10000000       0.18402405      -0.00178940      -0.34481485
Al      17.15000000      17.15000000       5.00000000       0.00936090       0.01033994      -0.66851641
Al      17.15000000      19.17500000       7.02500000      -0.01809947       0.10856351       0.41183812
Al      19.17500000      17.15000000       7.02500000       0.10854385       0.01354446       0.40131528
Al      19.17500000      19.17500000       5.00000000       0.04904131       0.04982746      -0.66993991
Al      17.13726481      17.14135388       9.06181820      -0.01210911      -0.00140556      -0.01667795
Al      17.12615799      19.16741746      11.07305438      -0.00422582       0.00582614       0.02502342
Al      19.19632317      17.15235282      11.07101023      -0.00045198      -0.00001337       0.02409166
Al      19.17094828      19.17201395       9.05417331       0.00052238       0.00695425      -0.01468901
Al      17.15000000      17.15000000      13.10000000      -0.02032421       0.01263608      -0.36544995
Al      17.15000000      19.17500000      15.12500000       0.00733839       0.04650170       0.66841103
Al      19.17500000      17.15000000      15.12500000       0.04608415       0.00957018       0.66654497
Al      19.17500000      19.17500000      13.10000000       0.08517715       0.10319113      -0.43501169
Al      17.15000000      21.20000000       5.00000000       0.01048594      -0.31521350      -0.61033574
Al      17.15000000      23.22500000       7.02500000       0.01313700       0.60436905       0.23403840
Al      19.17500000      21.20000000       7.02500000       0.05707273      -0.07075542       0.54667891
Al      19.17500000      23.22500000       5.00000000       0.04420238       0.20227571      -0.15216032
Al      17.14889469      21.25215542       9.07118127      -0.00261476       0.01908122      -0.01016250
Al      17.16037303      23.43037859      11.09082934      -0.00120764       0.01180703      -0.04162334
Al      19.16300512      21.22697147      11.05748342       0.00099918       0.02041868       0.01564695
Al      19.18110602      23.40346224       9.02662974       0.00191203       0.01384517       0.04249437
Al      17.15000000      21.20000000      13.10000000      -0.00804254      -0.04649266      -0.54560686
Al      17.15000000      23.22500000      15.12500000       0.01145418       0.20770117       0.15329414
Al      19.17500000      21.20000000      15.12500000       0.04944057      -0.31458395       0.60848452
Al      19.17500000      23.22500000      13.10000000       0.03494650       0.58101908      -0.22670517
Al      21.20000000       5.00000000       5.00000000      -0.44759278      -0.09470813      -0.06280168
Al      21.20000000       7.02500000       7.02500000      -0.14470425       0.14470425       0.65810177
Al      23.22500000       5.00000000       7.02500000       0.04532920      -0.04532920       0.51830504
Al      23.22500000       7.02500000       5.00000000       0.09470813       0.44759278      -0.06280168
Al      21.17767308       4.87806034       9.04521234       0.01045824      -0.01048324       0.04078227
Al      21.19611416       7.02888584      11.04339527       0.01895527      -0.01895527       0.01144129
Al      23.24767140       4.97732860      11.07639507       0.00450723      -0.00450723      -0.07398604
Al      23.34693966       7.04732692       9.04521234       0.01048324      -0.01045824       0.04078227
Al      21.20000000       5.00000000      13.10000000      -0.24346799      -0.47955448      -0.36382288
Al      21.20000000       7.02500000      15.12500000      -0.31179019       0.31179019       0.55242495
Al      23.22500000       5.00000000      15.12500000      -0.33345640       0.33345640      -0.34569423
Al      23.22500000       7.02500000      13.10000000       0.47955448       0.24346799      -0.36382288
Al      21.20000000       9.05000000       5.00000000      -0.31352667      -0.05084753      -0.60815860
Al      21.20000000      11.07500000       7.02500000      -0.02882633      -0.00018907       0.53342882
Al      23.22500000       9.05000000       7.02500000       0.58883706      -0.03594129       0.22116695
Al      23.22500000      11.07500000       5.00000000       0.20898865      -0.01244950      -0.15307674
Al      21.23340863       9.05668737       9.06783913       0.02120102      -0.00934941      -0.01045509
Al      21.26054042      11.07097212      11.05349452       0.02054201      -0.00494402       0.01600667
Al      23.41030497       9.04305162      11.09850619       0.01040474      -0.00704031      -0.04004116
Al      23.43058316      11.06622679       9.03282333       0.01334535      -0.00528440       0.04524673
Al      21.20000000       9.05000000      13.10000000      -0.06789768      -0.06194261      -0.54893119
Al      21.20000000      11.07500000      15.12500000      -0.31514311      -0.01193132       0.60890533
Al      23.22500000       9.05000000      15.12500000       0.20150467      -0.04519908       0.15033616
Al      23.22500000      11.07500000      13.10000000       0.61465673      -0.01065845      -0.22668152
Al      21.20000000      13.10000000       5.00000000      -0.31588200       0.00150155      -0.61003739
Al      21.20000000      15.12500000       7.02500000       0.00203192      -0.00072632       0.52800094
Al      23.22500000      13.10000000       7.02500000       0.62542249      -0.00982901       0.23710418
Al      23.22500000      15.12500000       5.00000000       0.21015240      -0.00119227      -0.15314662
Al      21.26756274      13.09762509       9.07155373       0.02237503      -0.00241150      -0.01445734
Al      21.26644300      15.12742178      11.05186792       0.02033323      -0.00284819       0.01974699
Al      23.43532849      13.09839070      11.09297018       0.01189481      -0.00225071      -0.03932180
Al      23.43542827      15.12780259       9.03129399       0.01332681      -0.00296026       0.04286421
Al      21.20000000      13.10000000      13.10000000      -0.00292651       0.00238224      -0.53347674
Al      21.20000000      15.12500000      15.12500000      -0.31687435      -0.00173619       0.60975595
Al      23.22500000      13.10000000      15.12500000       0.20937159       0.00042764       0.15297638
Al      23.22500000      15.12500000      13.10000000       0.62046797       0.01178961      -0.24149167
Al      21.20000000      17.15000000       5.00000000      -0.31543757       0.01094109      -0.60936170
Al      21.20000000      19.17500000       7.02500000      -0.06678713       0.06379680       0.54406247
Al      23.22500000      17.15000000       7.02500000       0.61807272       0.01154883       0.22066610
Al      23.22500000      19.17500000       5.00000000       0.20294924       0.04459866      -0.15115723
Al      21.26091672      17.15505277       9.06983027       0.01996060       0.00012876      -0.01221377
Al      21.23844424      19.17214832      11.05675233       0.01784867       0.00516241       0.01556236
Al      23.42934068      17.15934556      11.09144871       0.01433537       0.00037108      -0.04112106
Al      23.41150575      19.18242163       9.02545057       0.01447967       0.00443439       0.04243631
Al      21.20000000      17.15000000      13.10000000      -0.01484267       0.00095378      -0.52021999