299
Lattice="28.224999999999998 0.0 0.0 0.0 28.224999999999998 0.0 0.0 0.0 20.125" Properties=species:S:1:pos:R:3:forces:R:3 energy=-16469.299381283832 pbc="T T T"
Al       5.00000000       5.00000000       5.00000000       0.33066625       0.33045011       0.33696799
Al       5.00000000       7.02500000       7.02500000      -0.48895108       0.24900898       0.39370745
Al       7.02500000       5.00000000       7.02500000       0.24587690      -0.48935569       0.38883936
Al       7.02500000       7.02500000       5.00000000       0.32298832       0.32303013      -0.57869022
Al       4.97777175       4.97761732       9.05180423      -0.01599796      -0.01519923       0.00657134
Al       4.88345674       7.04804843      11.07619728      -0.00894472      -0.00007272       0.02478120
Al       7.04630137       4.87445354      11.07682532      -0.00218856      -0.00858669       0.02398090
Al       7.02829382       7.02679119       9.08508169      -0.00769618      -0.00504079      -0.05893727
Al       5.00000000       5.00000000      13.10000000      -0.04435421      -0.04044664      -0.53798805
Al       5.00000000       7.02500000      15.12500000      -0.09101935       0.45282673       0.08181953
Al       7.02500000       5.00000000      15.12500000       0.45246816      -0.09175848       0.08080273
Al       7.02500000       7.02500000      13.10000000       0.15106896       0.15286052      -0.68546517
Al       5.00000000       9.05000000       5.00000000      -0.19382207      -0.04248881      -0.16903740
Al       5.00000000      11.07500000       7.02500000      -0.61269454      -0.01456137       0.26760554
Al       7.02500000       9.05000000       7.02500000       0.07648893      -0.05573243       0.57582422
Al       7.02500000      11.07500000       5.00000000       0.32155828      -0.01646420      -0.63648887
Al       4.82144347       9.04382995       9.03053339      -0.00287291       0.00325683      -0.02429997
Al       4.79438574      11.06515862      11.08778862      -0.00345721       0.00031062       0.01605025
Al       6.99713601       9.06182834      11.05437589      -0.00930013       0.00257181       0.05719998
Al       6.97155858      11.07646547       9.07478272      -0.00613926      -0.00048215      -0.05588272
Al       5.00000000       9.05000000      13.10000000      -0.58957718      -0.03197735      -0.25942278
Al       5.00000000      11.07500000      15.12500000      -0.20390367      -0.01251943       0.17139898
Al       7.02500000       9.05000000      15.12500000       0.32400921      -0.04896919       0.63480129
Al       7.02500000      11.07500000      13.10000000       0.04455129       0.00235470      -0.57542392
Al       5.00000000      13.10000000       5.00000000      -0.20694223       0.00014209      -0.17051133
Al       5.00000000      15.12500000       7.02500000      -0.64216572       0.01280219       0.26450152
Al       7.02500000      13.10000000       7.02500000       0.03593177      -0.00041690       0.59680116
Al       7.02500000      15.12500000       5.00000000       0.31845310       0.00072377      -0.63843566
Al       4.78693445      13.09726344       9.03380231      -0.00400566      -0.00155229      -0.01741229
Al       4.78912994      15.12734617      11.08970264      -0.00504749      -0.00111786       0.01631531
Al       6.95263277      13.09574014      11.04840556      -0.00852418      -0.00208556       0.05118746
Al       6.95408478      15.12729965       9.07334524      -0.00887531      -0.00100478      -0.05611452
Al       5.00000000      13.10000000      13.10000000      -0.63882716      -0.01201734      -0.27083559
Al       5.00000000      15.12500000      15.12500000      -0.20800940      -0.00058713       0.17161688
Al       7.02500000      13.10000000      15.12500000       0.31756150      -0.00138922       0.63799965
Al       7.02500000      15.12500000      13.10000000      -0.03189421       0.00084740      -0.54121812
Al       5.00000000      17.15000000       5.00000000      -0.20337805       0.01245553      -0.17077446
Al       5.00000000      19.17500000       7.02500000      -0.58903341       0.03332570       0.25311847
Al       7.02500000      17.15000000       7.02500000       0.05017779       0.00504366       0.58203609
Al       7.02500000      19.17500000       5.00000000       0.32422517       0.04944304      -0.63467771
Al       4.79318406      17.16035658       9.03593752      -0.00544679      -0.00150664      -0.01880049
Al       4.81381966      19.18389435      11.09500636      -0.00610427      -0.00418367       0.02305354
Al       6.95980034      17.15695016      11.04994524      -0.00820953      -0.00355079       0.05445051
Al       6.99471672      19.16691968       9.07217212      -0.00761934      -0.00307891      -0.06221879
Al       5.00000000      17.15000000      13.10000000      -0.62983523       0.01308329      -0.25683376
Al       5.00000000      19.17500000      15.12500000      -0.19619325       0.04250962       0.16940604
Al       7.02500000      17.15000000      15.12500000       0.31985480       0.01555835       0.63678315
Al       7.02500000      19.17500000      13.10000000       0.08546362       0.05628520      -0.58311936
Al       5.00000000      21.20000000       5.00000000      -0.09002590      -0.45304853      -0.08094096
Al       5.00000000      23.22500000       7.02500000      -0.04052128       0.04052128       0.54002319
Al       7.02500000      21.20000000       7.02500000       0.15762976      -0.15762976       0.67975504
Al       7.02500000      23.22500000       5.00000000       0.45304853       0.09002590      -0.08094096
Al       4.88220393      21.17651733       9.04838399      -0.00947241       0.00120753      -0.02817963
Al       4.98148661      23.24351339      11.07178847      -0.01778806       0.01778806      -0.00695507
Al       7.03403158      21.19096842      11.04122888      -0.00794633       0.00794633       0.05826778
Al       7.04848267      23.34279607       9.04838399      -0.00120753       0.00947241      -0.02817963
Al       5.00000000      21.20000000      13.10000000      -0.48446308      -0.24708523      -0.39161302
Al       5.00000000      23.22500000      15.12500000       0.32989201      -0.32989201      -0.33522126
Al       7.02500000      21.20000000      15.12500000       0.32201599      -0.32201599       0.58081455
Al       7.02500000      23.22500000      13.10000000       0.24708523       0.48446308      -0.39161302
Al       9.05000000       5.00000000       5.00000000      -0.04251803      -0.19442732      -0.16817019
Al       9.05000000       7.02500000       7.02500000      -0.06220941       0.07317957       0.57387163
Al      11.07500000       5.00000000       7.02500000      -0.01236429      -0.62579218       0.25561467
Al      11.07500000       7.02500000       5.00000000      -0.01589646       0.32189045      -0.63545161
Al       9.04224120       4.81370036       9.02943916       0.00168980      -0.00415703      -0.02471181
Al       9.05240712       6.98600744      11.05358842       0.00015359      -0.00666514       0.05698138
Al      11.06612444       4.79559454      11.08833835      -0.00156089      -0.00612592       0.01585033
Al      11.07017701       6.96299408       9.07353837      -0.00181209      -0.00675097      -0.05877470
Al       9.05000000       5.00000000      13.10000000      -0.03278701      -0.60208336      -0.24762571
Al       9.05000000       7.02500000      15.12500000      -0.04932352       0.32453140       0.63422102
Al      11.07500000       5.00000000      15.12500000      -0.01317669      -0.20411423       0.17189855
Al      11.07500000       7.02500000      13.10000000      -0.00556519       0.01543773      -0.55161917
Al       9.05000000       9.05000000       5.00000000      -0.05343619      -0.05350074      -0.69550545
Al       9.05000000      11.07500000       7.02500000      -0.11742819       0.00799885       0.44996433
Al      11.07500000       9.05000000       7.02500000      -0.02248036      -0.11772672       0.44051039
Al      11.07500000      11.07500000       5.00000000      -0.02358923      -0.02370307      -0.70227864
Al       9.05211419       9.05354585       9.05809663      -0.00121111       0.00287568      -0.06270363
Al       9.05630066      11.09873194      11.07027976      -0.00583599      -0.00344151       0.05508149
Al      11.07248591       9.02781538      11.06814333      -0.00424103      -0.00079756       0.05403562
Al      11.08322302      11.08756529       9.06567958      -0.00636811       0.00175311      -0.05524440
Al       9.05000000       9.05000000      13.10000000      -0.10788830      -0.09001476      -0.46625274
Al       9.05000000      11.07500000      15.12500000      -0.05883011      -0.02078618       0.69917645
Al      11.07500000       9.05000000      15.12500000      -0.02035318      -0.05818785       0.69703712
Al      11.07500000      11.07500000      13.10000000      -0.03055464       0.00009596      -0.40854586
Al       9.05000000      13.10000000       5.00000000      -0.06042071      -0.00353926      -0.70279412
Al       9.05000000      15.12500000       7.02500000      -0.06989348       0.00403872       0.50245184
Al      11.07500000      13.10000000       7.02500000      -0.00952186       0.03614628       0.39743003
Al      11.07500000      15.12500000       5.00000000      -0.02268869       0.00369887      -0.70594539
Al       9.03992429      13.11153279       9.06478813       0.00033902      -0.00376614      -0.05573390
Al       9.00399708      15.12550184      11.07173684      -0.00355120       0.00125714       0.05315641
Al      11.13987524      13.17427632      11.08762392      -0.01542399      -0.01180603       0.05948009
Al      11.10693994      15.12595698       9.08868401       0.02501093       0.00280279      -0.04108756
Al       9.05000000      13.10000000      13.10000000      -0.12372082       0.01245032      -0.45455888
Al       9.05000000      15.12500000      15.12500000      -0.06207633       0.00211436       0.69896210
Al      11.07500000      13.10000000      15.12500000      -0.03581331      -0.01486209       0.72248213
Al      11.07500000      15.12500000      13.10000000       0.34489198       0.01297715      -0.51967811
Al       9.05000000      17.15000000       5.00000000      -0.05774927       0.02002172      -0.70091089
Al       9.05000000      19.17500000       7.02500000      -0.08365534       0.08365534       0.47971083
Al      11.07500000      17.15000000       7.02500000       0.00061344      -0.00061344       0.40350887
Al      11.07500000      19.17500000       5.00000000      -0.02002172       0.05774927      -0.70091089
Al       9.04756810      17.13957878       9.06512434       0.00518215      -0.00123619      -0.05792662
Al       9.07026491      19.15473509      11.07030015       0.00027493      -0.00027493       0.06187554
Al      11.14463707      17.08036293      11.08651122      -0.01312534       0.01312534       0.06224189
Al      11.08542122      19.17743190       9.06512434       0.00123619      -0.00518215      -0.05792662
Al       9.05000000      17.15000000      13.10000000      -0.10689442       0.00677233      -0.45443215
Al       9.05000000      19.17500000      15.12500000      -0.05436784       0.05436784       0.69818554
Al      11.07500000      17.15000000      15.12500000      -0.03356535       0.03356535       0.72076995
Al      11.07500000      19.17500000      13.10000000      -0.00677233       0.10689442      -0.45443215
Al       9.05000000      21.20000000       5.00000000      -0.04944304      -0.32422517      -0.63467771
Al       9.05000000      23.22500000       7.02500000      -0.03332570       0.58903341       0.25311847
Al      11.07500000      21.20000000       7.02500000      -0.00504366      -0.05017779       0.58203609
Al      11.07500000      23.22500000       5.00000000      -0.01245553       0.20337805      -0.17077446
Al       9.05808032      21.23028328       9.07217212       0.00307891       0.00761934      -0.06221879
Al       9.04110565      23.41118034      11.09500636       0.00418367       0.00610427       0.02305354
Al      11.06804984      21.26519966      11.04994524       0.00355079       0.00820953       0.05445051
Al      11.06464342      23.43181594       9.03593752       0.00150664       0.00544679      -0.01880049
Al       9.05000000      21.20000000      13.10000000      -0.05628520      -0.08546362      -0.58311936
Al       9.05000000      23.22500000      15.12500000      -0.04250962       0.19619325       0.16940604
Al      11.07500000      21.20000000      15.12500000      -0.01555835      -0.31985480       0.63678315
Al      11.07500000      23.22500000      13.10000000      -0.01308329       0.62983523      -0.25683376
Al      13.10000000       5.00000000       5.00000000      -0.00005486      -0.20627631      -0.17098797
Al      13.10000000       7.02500000       7.02500000      -0.00141294      -0.00281109       0.56059626
Al      15.12500000       5.00000000       7.02500000       0.01156086      -0.63560926       0.26877205
Al      15.12500000       7.02500000       5.00000000       0.00046840       0.31949297      -0.63767427
Al      13.09799971       4.78955156       9.03475557      -0.00125725      -0.00597673      -0.01919836
Al      13.09825202       6.95715444      11.04944788      -0.00359461      -0.00838832       0.05124276
Al      15.12693973       4.78978513      11.09047499       0.00004624      -0.00811903       0.01481846
Al      15.12788142       6.95589851       9.07506911       0.00092088      -0.00861108      -0.05875117
Al      13.10000000       5.00000000      13.10000000      -0.01324787      -0.63432698      -0.27241269
Al      13.10000000       7.02500000      15.12500000      -0.00195136       0.31885217       0.63873369
Al      15.12500000       5.00000000      15.12500000      -0.00117887      -0.20833993       0.17247266
Al      15.12500000       7.02500000      13.10000000      -0.00029731       0.00014144      -0.56308333
Al      13.10000000       9.05000000       5.00000000      -0.00283756      -0.06077534      -0.69964430
Al      13.10000000      11.07500000       7.02500000      -0.01097021       0.04325375       0.44773992
Al      15.12500000       9.05000000       7.02500000       0.00311753      -0.13455585       0.43858612
Al      15.12500000      11.07500000       5.00000000       0.00435956      -0.02521122      -0.70487455
Al      13.09998327       9.02139375       9.05433461      -0.00506725      -0.00491799      -0.06152633
Al      13.10051280      11.04638626      11.07327918      -0.00734581      -0.00271015       0.04972830
Al      15.12796839       9.01989340      11.06838489       0.00049701      -0.00445072       0.05253355
Al      15.11289717      11.08314661       9.06456841       0.00224984       0.00150201      -0.05695299
Al      13.10000000       9.05000000      13.10000000      -0.00361563      -0.20197363      -0.38237633
Al      13.10000000      11.07500000      15.12500000      -0.00468601      -0.02623828       0.70037922
Al      15.12500000       9.05000000      15.12500000       0.00154256      -0.06066214       0.70003395
Al      15.12500000      11.07500000      13.10000000      -0.00652703      -0.01030665      -0.39465992
Al      13.10000000      13.10000000       5.00000000      -0.00445966      -0.00271284      -0.70873514
Al      13.10000000      15.12500000       7.02500000      -0.01429071       0.01429071       0.11137566
Al      15.12500000      13.10000000       7.02500000      -0.03500867       0.03500867       0.38624456
Al      15.12500000      15.12500000       5.00000000       0.00271284       0.00445966      -0.70873514
Al      13.09803493      13.14158172       9.08970888      -0.00573106       0.02823216      -0.04179773
Al      15.05069290      13.17430710      11.08838625       0.00995759      -0.00995759       0.05996783
Al      15.08341828      15.12696507       9.08970888      -0.02823216       0.00573106      -0.04179773
Al      13.10000000      13.10000000      13.10000000      -0.02137829       0.38165919      -0.50295195
Al      13.10000000      15.12500000      15.12500000      -0.00434047       0.00434047       0.86404120
Al      15.12500000      13.10000000      15.12500000       0.01456549      -0.01456549       0.72501558
Al      15.12500000      15.12500000      13.10000000      -0.38165919       0.02137829      -0.50295195
Al      13.10000000      17.15000000       5.00000000      -0.00369887       0.02268869      -0.70594539
Al      13.10000000      19.17500000       7.02500000      -0.00403872       0.06989348       0.50245184
Al      15.12500000      17.15000000       7.02500000      -0.03614628       0.00952186       0.39743003
Al      15.12500000      19.17500000       5.00000000       0.00353926       0.06042071      -0.70279412
Al      13.09904302      17.11806006       9.08868401      -0.00280279      -0.02501093      -0.04108756
Al      13.09949816      19.22100292      11.07173684      -0.00125714       0.00355120       0.05315641
Al      15.05072368      17.08512476      11.08762392       0.01180603       0.01542399       0.05948009
Al      15.11346721      19.18507571       9.06478813       0.00376614      -0.00033902      -0.05573390
Al      13.10000000      17.15000000      13.10000000      -0.01297715      -0.34489198      -0.51967811
Al      13.10000000      19.17500000      15.12500000      -0.00211436       0.06207633       0.69896210
Al      15.12500000      17.15000000      15.12500000       0.01486209       0.03581331       0.72248213
Al      15.12500000      19.17500000      13.10000000      -0.01245032       0.12372082      -0.45455888
Al      13.10000000      21.20000000       5.00000000      -0.00072377      -0.31845310      -0.63843566
Al      13.10000000      23.22500000       7.02500000      -0.01280219       0.64216572       0.26450152
Al      15.12500000      21.20000000       7.02500000       0.00041690      -0.03593177       0.59680116
Al      15.12500000      23.22500000       5.00000000      -0.00014209       0.20694223      -0.17051133
Al      13.09770035      21.27091522       9.07334524       0.00100478       0.00887531      -0.05611452
Al      13.09765383      23.43587006      11.08970264       0.00111786       0.00504749       0.01631531
Al      15.12925986      21.27236723      11.04840556       0.00208556       0.00852418       0.05118746
Al      15.12773656      23.43806555       9.03380231       0.00155229       0.00400566      -0.01741229
Al      13.10000000      21.20000000      13.10000000      -0.00084740       0.03189421      -0.54121812
Al      13.10000000      23.22500000      15.12500000       0.00058713       0.20800940       0.17161688
Al      15.12500000      21.20000000      15.12500000       0.00138922      -0.31756150       0.63799965
Al      15.12500000      23.22500000      13.10000000       0.01201734       0.63882716      -0.27083559
Al      17.15000000       5.00000000       5.00000000       0.01214301      -0.20277703      -0.17139436
Al      17.15000000       7.02500000       7.02500000       0.00395804       0.03206706       0.56326999
Al      19.17500000       5.00000000       7.02500000       0.03268324      -0.59492381       0.25257896
Al      19.17500000       7.02500000       5.00000000       0.04861500       0.32502942      -0.63437612
Al      17.15919192       4.79471716       9.03680147       0.00072588      -0.00637967      -0.02056878
Al      17.15468557       6.96347781      11.05087674      -0.00013651      -0.00841000       0.05211713
Al      19.18275078       4.81541301      11.09532619      -0.00179382      -0.00769883       0.02036385
Al      19.16915506       6.99092199       9.07174798      -0.00027084      -0.00823357      -0.06486515
Al      17.15000000       5.00000000      13.10000000       0.01167577      -0.62714175      -0.25847414
Al      17.15000000       7.02500000      15.12500000       0.01477712       0.32119389       0.63793360
Al      19.17500000       5.00000000      15.12500000       0.04247371      -0.19702855       0.17046975
Al      19.17500000       7.02500000      13.10000000       0.05965137       0.07279440      -0.57293245
Al      17.15000000       9.05000000       5.00000000       0.01955448      -0.05732322      -0.69827629
Al      17.15000000      11.07500000       7.02500000       0.01167022      -0.01167022       0.40130978
Al      19.17500000       9.05000000       7.02500000       0.10176451      -0.10176451       0.45774423
Al      19.17500000      11.07500000       5.00000000       0.05732322      -0.01955448      -0.69827629
Al      17.14459375       9.03973852       9.05839243       0.00198859      -0.00094013      -0.06272592
Al      17.12875274      11.09624726      11.07074254       0.00541508      -0.00541508       0.05206963
Al      19.16923536       9.05576464      11.06905426       0.00067703      -0.00067703       0.05755514
Al      19.18526148      11.08040625       9.05839243       0.00094013      -0.00198859      -0.06272592
Al      17.15000000       9.05000000      13.10000000       0.01466671      -0.12403535      -0.42897937
Al      17.15000000      11.07500000      15.12500000       0.02316709      -0.02316709       0.70189447
Al      19.17500000       9.05000000      15.12500000       0.05281624      -0.05281624       0.69796233
Al      19.17500000      11.07500000      13.10000000       0.12403535      -0.01466671      -0.42897937
Al      17.15000000      13.10000000       5.00000000       0.02521122      -0.00435956      -0.70487455
Al      17.15000000      15.12500000       7.02500000      -0.04325375       0.01097021       0.44773992
Al      19.17500000      13.10000000       7.02500000       0.13455585      -0.00311753       0.43858612
Al      19.17500000      15.12500000       5.00000000       0.06077534       0.00283756      -0.69964430
Al      17.14185339      13.11210283       9.06456841      -0.00150201      -0.00224984      -0.05695299
Al      17.17861374      15.12448720      11.07327918       0.00271015       0.00734581       0.04972830
Al      19.20510660      13.09703161      11.06838489       0.00445072      -0.00049701       0.05253355
Al      19.20360625      15.12501673       9.05433461       0.00491799       0.00506725      -0.06152633
Al      17.15000000      13.10000000      13.10000000       0.01030665       0.00652703      -0.39465992
Al      17.15000000      15.12500000      15.12500000       0.02623828       0.00468601       0.70037922
Al      19.17500000      13.10000000      15.12500000       0.06066214      -0.00154256       0.70003395
Al      19.17500000      15.12500000      13.10000000       0.20197363       0.00361563      -0.38237633
Al      17.15000000      17.15000000       5.00000000       0.02370307       0.02358923      -0.70227864
Al      17.15000000      19.17500000       7.02500000      -0.00799885       0.11742819       0.44996433
Al      19.17500000      17.15000000       7.02500000       0.11772672       0.02248036       0.44051039
Al      19.17500000      19.17500000       5.00000000       0.05350074       0.05343619      -0.69550545
Al      17.13743471      17.14177698       9.06567958      -0.00175311       0.00636811      -0.05524440
Al      17.12626806      19.16869934      11.07027976       0.00344151       0.00583599       0.05508149
Al      19.19718462      17.15251409      11.06814333       0.00079756       0.00424103       0.05403562
Al      19.17145415      19.17288581       9.05809663      -0.00287568       0.00121111      -0.06270363
Al      17.15000000      17.15000000      13.10000000      -0.00009596       0.03055464      -0.40854586
Al      17.15000000      19.17500000      15.12500000       0.02078618       0.05883011       0.69917645
Al      19.17500000      17.15000000      15.12500000       0.05818785       0.02035318       0.69703712
Al      19.17500000      19.17500000      13.10000000       0.09001476       0.10788830      -0.46625274
Al      17.15000000      21.20000000       5.00000000       0.01646420      -0.32155828      -0.63648887
Al      17.15000000      23.22500000       7.02500000       0.01456137       0.61269454       0.26760554
Al      19.17500000      21.20000000       7.02500000       0.05573243      -0.07648893       0.57582422
Al      19.17500000      23.22500000       5.00000000       0.04248881       0.19382207      -0.16903740
Al      17.14853453      21.25344142       9.07478272       0.00048215       0.00613926      -0.05588272
Al      17.15984138      23.43061426      11.08778862      -0.00031062       0.00345721       0.01605025
Al      19.16317166      21.22786399      11.05437589      -0.00257181       0.00930013       0.05719998
Al      19.18117005      23.40355653       9.03053339      -0.00325683       0.00287291      -0.02429997
Al      17.15000000      21.20000000      13.10000000      -0.00235470      -0.04455129      -0.57542392
Al      17.15000000      23.22500000      15.12500000       0.01251943       0.20390367       0.17139898
Al      19.17500000      21.20000000      15.12500000       0.04896919      -0.32400921       0.63480129
Al      19.17500000      23.22500000      13.10000000       0.03197735       0.58957718      -0.25942278
Al      21.20000000       5.00000000       5.00000000      -0.45308980      -0.09034586      -0.08125784
Al      21.20000000       7.02500000       7.02500000      -0.15176190       0.15176190       0.68106192
Al      23.22500000       5.00000000       7.02500000       0.04205629      -0.04205629       0.53592057
Al      23.22500000       7.02500000       5.00000000       0.09034586       0.45308980      -0.08125784
Al      21.17817787       4.87891611       9.04878280       0.00158233      -0.00953837      -0.02871387
Al      21.19654569       7.02845431      11.04085344       0.00839153      -0.00839153       0.05362594
Al      23.24692372       4.97807628      11.07367976       0.01834773      -0.01834773      -0.00967277
Al      23.34608389       7.04682213       9.04878280       0.00953837      -0.00158233      -0.02871387
Al      21.20000000       5.00000000      13.10000000      -0.24612001      -0.49190417      -0.38921691
Al      21.20000000       7.02500000      15.12500000      -0.32182831       0.32182831       0.58137579
Al      23.22500000       5.00000000      15.12500000      -0.32859719       0.32859719      -0.33572050
Al      23.22500000       7.02500000      13.10000000       0.49190417       0.24612001      -0.38921691
Al      21.20000000       9.05000000       5.00000000      -0.32502942      -0.04861500      -0.63437612
Al      21.20000000      11.07500000       7.02500000      -0.03206706      -0.00395804       0.56326999
Al      23.22500000       9.05000000       7.02500000       0.59492381      -0.03268324       0.25257896
Al      23.22500000      11.07500000       5.00000000       0.20277703      -0.01214301      -0.17139436
Al      21.23407801       9.05584494       9.07174798       0.00823357       0.00027084      -0.06486515
Al      21.26152219      11.07031443      11.05087674       0.00841000       0.00013651       0.05211713
Al      23.40958699       9.04224922      11.09532619       0.00769883       0.00179382       0.02036385
Al      23.43028284      11.06580808       9.03680147       0.00637967      -0.00072588      -0.02056878
Al      21.20000000       9.05000000      13.10000000      -0.07279440      -0.05965137      -0.57293245
Al      21.20000000      11.07500000      15.12500000      -0.32119389      -0.01477712       0.63793360
Al      23.22500000       9.05000000      15.12500000       0.19702855      -0.04247371       0.17046975
Al      23.22500000      11.07500000      13.10000000       0.62714175      -0.01167577      -0.25847414
Al      21.20000000      13.10000000       5.00000000      -0.31949297      -0.00046840      -0.63767427
Al      21.20000000      15.12500000       7.02500000       0.00281109       0.00141294       0.56059626
Al      23.22500000      13.10000000       7.02500000       0.63560926      -0.01156086       0.26877205
Al      23.22500000      15.12500000       5.00000000       0.20627631       0.00005486      -0.17098797
Al      21.26910149      13.09711858       9.07506911       0.00861108      -0.00092088      -0.05875117
Al      21.26784556      15.12674798      11.04944788       0.00838832       0.00359461       0.05124276
Al      23.43521487      13.09806027      11.09047499       0.00811903      -0.00004624       0.01481846
Al      23.43544844      15.12700029       9.03475557       0.00597673       0.00125725      -0.01919836
Al      21.20000000      13.10000000      13.10000000      -0.00014144       0.00029731      -0.56308333
Al      21.20000000      15.12500000      15.12500000      -0.31885217       0.00195136       0.63873369
Al      23.22500000      13.10000000      15.12500000       0.20833993       0.00117887       0.17247266
Al      23.22500000      15.12500000      13.10000000       0.63432698       0.01324787      -0.27241269
Al      21.20000000      17.15000000       5.00000000      -0.32189045       0.01589646      -0.63545161
Al      21.20000000      19.17500000       7.02500000      -0.07317957       0.06220941       0.57387163
Al      23.22500000      17.15000000       7.02500000       0.62579218       0.01236429       0.25561467
Al      23.22500000      19.17500000       5.00000000       0.19442732       0.04251803      -0.16817019
Al      21.26200592      17.15482299       9.07353837       0.00675097       0.00181209      -0.05877470
Al      21.23899256      19.17259288      11.05358842       0.00666514      -0.00015359       0.05698138
Al      23.42940546      17.15887556      11.08833835       0.00612592       0.00156089       0.01585033
Al      23.41129964      19.18275880       9.02943916       0.00415703      -0.00168980      -0.02471181
Al      21.20000000      17.15000000      13.10000000      -0.01543773       0.00556519      -0.55161917