299
Lattice="28.224999999999998 0.0 0.0 0.0 28.224999999999998 0.0 0.0 0.0 20.125" Properties=species:S:1:pos:R:3:forces:R:3 energy=-16469.29725306941 pbc="T T T"
Al       5.00000000       5.00000000       5.00000000       0.32771301       0.32739430       0.33619042
Al       5.00000000       7.02500000       7.02500000      -0.49899040       0.24558747       0.36427995
Al       7.02500000       5.00000000       7.02500000       0.24191713      -0.49897525       0.35934746
Al       7.02500000       7.02500000       5.00000000       0.32331722       0.32343698      -0.58328539
Al       4.97745182       4.97734820       9.04510240      -0.00834052      -0.00774294       0.07282117
Al       4.88300552       7.04822609      11.08250951      -0.00477428      -0.00273630      -0.05688488
Al       7.04624862       4.87397909      11.08314029      -0.00312865      -0.00421533      -0.05721530
Al       7.02825698       7.02702883       9.07859132      -0.00756204      -0.00711440       0.04381355
Al       5.00000000       5.00000000      13.10000000      -0.05429848      -0.05012852      -0.51648838
Al       5.00000000       7.02500000      15.12500000      -0.09491247       0.45283178       0.08189760
Al       7.02500000       5.00000000      15.12500000       0.45295263      -0.09582475       0.08069151
Al       7.02500000       7.02500000      13.10000000       0.14583318       0.14754166      -0.65457239
Al       5.00000000       9.05000000       5.00000000      -0.19810788      -0.03786762      -0.17157866
Al       5.00000000      11.07500000       7.02500000      -0.62003417      -0.00902471       0.22923028
Al       7.02500000       9.05000000       7.02500000       0.07162615      -0.05010589       0.53801555
Al       7.02500000      11.07500000       5.00000000       0.32931048      -0.00686696      -0.64218447
Al       4.82105380       9.04413223       9.02376283      -0.00520934       0.00018742       0.06060662
Al       4.79420900      11.06527828      11.09422350      -0.00550210       0.00195175      -0.05957720
Al       6.99708320       9.06224958      11.06065384      -0.00719274      -0.00025246      -0.04014556
Al       6.97147582      11.07657043       9.06828096      -0.00191119       0.00446947       0.04276258
Al       5.00000000       9.05000000      13.10000000      -0.59749701      -0.02955916      -0.22380328
Al       5.00000000      11.07500000      15.12500000      -0.20323585      -0.00768879       0.17290576
Al       7.02500000       9.05000000      15.12500000       0.32792506      -0.04162279       0.63978235
Al       7.02500000      11.07500000      13.10000000       0.04462307       0.01131931      -0.53312489
Al       5.00000000      13.10000000       5.00000000      -0.20442600       0.00279353      -0.17232696
Al       5.00000000      15.12500000       7.02500000      -0.64674048       0.01101534       0.22578976
Al       7.02500000      13.10000000       7.02500000       0.03735910       0.00387914       0.55263338
Al       7.02500000      15.12500000       5.00000000       0.32890364      -0.00276628      -0.64268424
Al       4.78683182      13.09720407       9.02723104      -0.00607893       0.00075627       0.06003081
Al       4.78902454      15.12717413      11.09606118      -0.00568582      -0.00056850      -0.05785895
Al       6.95260031      13.09574915      11.05446238      -0.00035297       0.00092411      -0.03817032
Al       6.95410857      15.12705913       9.06701925      -0.00100378       0.00032760       0.04052667
Al       5.00000000      13.10000000      13.10000000      -0.64195133      -0.00962431      -0.23178636
Al       5.00000000      15.12500000      15.12500000      -0.20436263      -0.00225161       0.17246518
Al       7.02500000      13.10000000      15.12500000       0.32932953       0.00303229       0.64109224
Al       7.02500000      15.12500000      13.10000000      -0.02843382      -0.00221446      -0.49752793
Al       5.00000000      17.15000000       5.00000000      -0.20347272       0.00781182      -0.17265477
Al       5.00000000      19.17500000       7.02500000      -0.59758934       0.03107972       0.21931974
Al       7.02500000      17.15000000       7.02500000       0.04929267      -0.00277247       0.54152484
Al       7.02500000      19.17500000       5.00000000       0.32771889       0.04204725      -0.64010604
Al       4.79288943      17.16008112       9.02928390      -0.00610560      -0.00128826       0.06147669
Al       4.81329195      19.18355272      11.10165203      -0.00460913      -0.00009879      -0.05897612
Al       6.95980488      17.15666534      11.05620725      -0.00173475      -0.00398485      -0.03958121
Al       6.99478663      19.16652991       9.06570811      -0.00623500       0.00071377       0.04195628
Al       5.00000000      17.15000000      13.10000000      -0.63465712       0.00846535      -0.21910144
Al       5.00000000      19.17500000      15.12500000      -0.19833701       0.03857891       0.17003111
Al       7.02500000      17.15000000      15.12500000       0.32900546       0.00724414       0.64020157
Al       7.02500000      19.17500000      13.10000000       0.08334271       0.05119989      -0.54753496
Al       5.00000000      21.20000000       5.00000000      -0.09491001      -0.45285641      -0.08135147
Al       5.00000000      23.22500000       7.02500000      -0.05124186       0.05124186       0.51973367
Al       7.02500000      21.20000000       7.02500000       0.15238285      -0.15238285       0.65158789
Al       7.02500000      23.22500000       5.00000000       0.45285641       0.09491001      -0.08135147
Al       4.88158459      21.17645471       9.04188615      -0.00422280       0.00271854       0.05833886
Al       4.98113065      23.24386935      11.07840500      -0.00798078       0.00798078      -0.07129669
Al       7.03417832      21.19082168      11.04753415      -0.00692842       0.00692842      -0.04081019
Al       7.04854529      23.34341541       9.04188615      -0.00271854       0.00422280       0.05833886
Al       5.00000000      21.20000000      13.10000000      -0.49100375      -0.24447549      -0.36230698
Al       5.00000000      23.22500000      15.12500000       0.32869804      -0.32869804      -0.33580977
Al       7.02500000      21.20000000      15.12500000       0.32307123      -0.32307123       0.58264197
Al       7.02500000      23.22500000      13.10000000       0.24447549       0.49100375      -0.36230698
Al       9.05000000       5.00000000       5.00000000      -0.03803683      -0.19902388      -0.17048787
Al       9.05000000       7.02500000       7.02500000      -0.05780320       0.06860722       0.53684778
Al      11.07500000       5.00000000       7.02500000      -0.00763158      -0.63346792       0.21782524
Al      11.07500000       7.02500000       5.00000000      -0.00669613       0.32959274      -0.64102259
Al       9.04227436       4.81319566       9.02259281      -0.00061613      -0.00491248       0.06107006
Al       9.05237216       6.98617222      11.05985617      -0.00080508      -0.00727781      -0.04068176
Al      11.06600207       4.79516931      11.09476740       0.00120494      -0.00531825      -0.06015506
Al      11.06992594       6.96304295       9.06690374       0.00339893      -0.00323769       0.04333758
Al       9.05000000       5.00000000      13.10000000      -0.03032388      -0.60965317      -0.21224257
Al       9.05000000       7.02500000      15.12500000      -0.04122528       0.32791697       0.63896073
Al      11.07500000       5.00000000      15.12500000      -0.00752472      -0.20320789       0.17269313
Al      11.07500000       7.02500000      13.10000000       0.00325869       0.01407492      -0.50994341
Al       9.05000000       9.05000000       5.00000000      -0.04105160      -0.04076202      -0.70337069
Al       9.05000000      11.07500000       7.02500000      -0.10645826       0.02103784       0.39801428
Al      11.07500000       9.05000000       7.02500000      -0.01142772      -0.10546960       0.38915793
Al      11.07500000      11.07500000       5.00000000      -0.00809804      -0.00795766      -0.70585176
Al       9.05197597       9.05387754       9.05134556       0.00275294       0.00405041       0.04200249
Al       9.05627658      11.09903948      11.07658411       0.00388149       0.00558300      -0.03908093
Al      11.07214214       9.02815076      11.07445900       0.00627376       0.00555449      -0.04084864
Al      11.08281282      11.08776122       9.05892170       0.00894719       0.01160642       0.04373379
Al       9.05000000       9.05000000      13.10000000      -0.09993604      -0.08126563      -0.42076928
Al       9.05000000      11.07500000      15.12500000      -0.04138976      -0.00743809       0.70376313
Al      11.07500000       9.05000000      15.12500000      -0.00670416      -0.04172066       0.70154356
Al      11.07500000      11.07500000      13.10000000      -0.01346088       0.01962007      -0.35270619
Al       9.05000000      13.10000000       5.00000000      -0.04209895       0.00207235      -0.70721518
Al       9.05000000      15.12500000       7.02500000      -0.05536771      -0.00058492       0.45001651
Al      11.07500000      13.10000000       7.02500000       0.00743233       0.04415622       0.33783642
Al      11.07500000      15.12500000       5.00000000      -0.00577189      -0.00262889      -0.70707972
Al       9.03994229      13.11162830       9.05822554       0.00744438       0.00061638       0.04132707
Al       9.00414205      15.12530092      11.07799217       0.00663299       0.00130286      -0.03753029
Al      11.13960462      13.17466780      11.09375815       0.00850534      -0.00316199      -0.03320576
Al      11.10680069      15.12589403       9.08202793       0.02363118       0.00055703       0.04708820
Al       9.05000000      13.10000000      13.10000000      -0.10569526       0.02013319      -0.40179795
Al       9.05000000      15.12500000      15.12500000      -0.04054766      -0.00254776       0.70015805
Al      11.07500000      13.10000000      15.12500000      -0.01603274      -0.00634960       0.71961626
Al      11.07500000      15.12500000      13.10000000       0.37089586       0.00700084      -0.46230580
Al       9.05000000      17.15000000       5.00000000      -0.04211194       0.00802516      -0.70690298
Al       9.05000000      19.17500000       7.02500000      -0.07604386       0.07604386       0.43655248
Al      11.07500000      17.15000000       7.02500000       0.01545143      -0.01545143       0.34746316
Al      11.07500000      19.17500000       5.00000000      -0.00802516       0.04211194      -0.70690298
Al       9.04776353      17.13941304       9.05858265       0.00833936      -0.00677300       0.04247845
Al       9.07066649      19.15433351      11.07674779       0.00247216      -0.00247216      -0.03724793
Al      11.14484370      17.08015630      11.09272767       0.00405108      -0.00405108      -0.03290112
Al      11.08558696      19.17723647       9.05858265       0.00677300      -0.00833936       0.04247845
Al       9.05000000      17.15000000      13.10000000      -0.09165571      -0.00594775      -0.40514480
Al       9.05000000      19.17500000      15.12500000      -0.04152714       0.04152714       0.70298532
Al      11.07500000      17.15000000      15.12500000      -0.01655675       0.01655675       0.72034227
Al      11.07500000      19.17500000      13.10000000       0.00594775       0.09165571      -0.40514480
Al       9.05000000      21.20000000       5.00000000      -0.04204725      -0.32771889      -0.64010604
Al       9.05000000      23.22500000       7.02500000      -0.03107972       0.59758934       0.21931974
Al      11.07500000      21.20000000       7.02500000       0.00277247      -0.04929267       0.54152484
Al      11.07500000      23.22500000       5.00000000      -0.00781182       0.20347272      -0.17265477
Al       9.05847009      21.23021337       9.06570811      -0.00071377       0.00623500       0.04195628
Al       9.04144728      23.41170805      11.10165203       0.00009879       0.00460913      -0.05897612
Al      11.06833466      21.26519512      11.05620725       0.00398485       0.00173475      -0.03958121
Al      11.06491888      23.43211057       9.02928390       0.00128826       0.00610560       0.06147669
Al       9.05000000      21.20000000      13.10000000      -0.05119989      -0.08334271      -0.54753496
Al       9.05000000      23.22500000      15.12500000      -0.03857891       0.19833701       0.17003111
Al      11.07500000      21.20000000      15.12500000      -0.00724414      -0.32900546       0.64020157
Al      11.07500000      23.22500000      13.10000000      -0.00846535       0.63465712      -0.21910144
Al      13.10000000       5.00000000       5.00000000       0.00226803      -0.20446761      -0.17246090
Al      13.10000000       7.02500000       7.02500000       0.00218584      -0.00246641       0.51750527
Al      15.12500000       5.00000000       7.02500000       0.00934446      -0.64097311       0.23076005
Al      15.12500000       7.02500000       5.00000000      -0.00356731       0.32994822      -0.64167216
Al      13.09783979       4.78911875       9.02802475       0.00073586      -0.00539420       0.06050514
Al      13.09803706       6.95712434      11.05545957       0.00004940      -0.00166922      -0.03973593
Al      15.12680906       4.78928772      11.09676175       0.00003967      -0.00505828      -0.05870894
Al      15.12769828       6.95581932       9.06849366       0.00016116      -0.00202337       0.04184850
Al      13.10000000       5.00000000      13.10000000      -0.01045816      -0.63661660      -0.23382502
Al      13.10000000       7.02500000      15.12500000       0.00321808       0.32959620       0.64112133
Al      15.12500000       5.00000000      15.12500000      -0.00257809      -0.20382874       0.17219882
Al      15.12500000       7.02500000      13.10000000      -0.00277183       0.00183020      -0.52016446
Al      13.10000000       9.05000000       5.00000000       0.00258643      -0.04181665      -0.70361902
Al      13.10000000      11.07500000       7.02500000      -0.00489963       0.06238350       0.38909913
Al      15.12500000       9.05000000       7.02500000      -0.00225430      -0.11998789       0.38589526
Al      15.12500000      11.07500000       5.00000000      -0.00216113      -0.00774589      -0.70513033
Al      13.09977078       9.02170978       9.04750298      -0.00095078       0.00433102       0.04185236
Al      13.10022602      11.04654595      11.07950101      -0.00026174       0.01442898      -0.03970618
Al      15.12765056       9.02014592      11.07457726       0.00039527       0.00470993      -0.03949139
Al      15.11259362      11.08321498       9.05770984      -0.00089074       0.01524541       0.04320535
Al      13.10000000       9.05000000      13.10000000       0.00277060      -0.18684297      -0.32951638
Al      13.10000000      11.07500000      15.12500000       0.00316027      -0.00658560       0.69768219
Al      15.12500000       9.05000000      15.12500000      -0.00246172      -0.04165869       0.70143769
Al      15.12500000      11.07500000      13.10000000      -0.01402004       0.01067716      -0.33743738
Al      13.10000000      13.10000000       5.00000000       0.00276560       0.00442005      -0.70635734
Al      13.10000000      15.12500000       7.02500000      -0.00752593       0.00752593       0.04843799
Al      15.12500000      13.10000000       7.02500000      -0.04370772       0.04370772       0.32583654
Al      15.12500000      15.12500000       5.00000000      -0.00442005      -0.00276560      -0.70635734
Al      13.09773480      13.14193064       9.08290986       0.00228995       0.01483357       0.04729615
Al      15.05019410      13.17480590      11.09448173       0.00091257      -0.00091257      -0.03322525
Al      15.08306936      15.12726520       9.08290986      -0.01483357      -0.00228995       0.04729615
Al      13.10000000      13.10000000      13.10000000      -0.01403739       0.39735138      -0.44373476
Al      13.10000000      15.12500000      15.12500000       0.00317005      -0.00317005       0.85785783
Al      15.12500000      13.10000000      15.12500000       0.00638238      -0.00638238       0.71803051
Al      15.12500000      15.12500000      13.10000000      -0.39735138       0.01403739      -0.44373476
Al      13.10000000      17.15000000       5.00000000       0.00262889       0.00577189      -0.70707972
Al      13.10000000      19.17500000       7.02500000       0.00058492       0.05536771       0.45001651
Al      15.12500000      17.15000000       7.02500000      -0.04415622      -0.00743233       0.33783642
Al      15.12500000      19.17500000       5.00000000      -0.00207235       0.04209895      -0.70721518
Al      13.09910597      17.11819931       9.08202793      -0.00055703      -0.02363118       0.04708820
Al      13.09969908      19.22085795      11.07799217      -0.00130286      -0.00663299      -0.03753029
Al      15.05033220      17.08539538      11.09375815       0.00316199      -0.00850534      -0.03320576
Al      15.11337170      19.18505771       9.05822554      -0.00061638      -0.00744438       0.04132707
Al      13.10000000      17.15000000      13.10000000      -0.00700084      -0.37089586      -0.46230580
Al      13.10000000      19.17500000      15.12500000       0.00254776       0.04054766       0.70015805
Al      15.12500000      17.15000000      15.12500000       0.00634960       0.01603274       0.71961626
Al      15.12500000      19.17500000      13.10000000      -0.02013319       0.10569526      -0.40179795
Al      13.10000000      21.20000000       5.00000000       0.00276628      -0.32890364      -0.64268424
Al      13.10000000      23.22500000       7.02500000      -0.01101534       0.64674048       0.22578976
Al      15.12500000      21.20000000       7.02500000      -0.00387914      -0.03735910       0.55263338
Al      15.12500000      23.22500000       5.00000000      -0.00279353       0.20442600      -0.17232696
Al      13.09794087      21.27089143       9.06701925      -0.00032760       0.00100378       0.04052667
Al      13.09782587      23.43597546      11.09606118       0.00056850       0.00568582      -0.05785895
Al      15.12925085      21.27239969      11.05446238      -0.00092411       0.00035297      -0.03817032
Al      15.12779593      23.43816818       9.02723104      -0.00075627       0.00607893       0.06003081
Al      13.10000000      21.20000000      13.10000000       0.00221446       0.02843382      -0.49752793
Al      13.10000000      23.22500000      15.12500000       0.00225161       0.20436263       0.17246518
Al      15.12500000      21.20000000      15.12500000      -0.00303229      -0.32932953       0.64109224
Al      15.12500000      23.22500000      13.10000000       0.00962431       0.64195133      -0.23178636
Al      17.15000000       5.00000000       5.00000000       0.00701430      -0.20391457      -0.17311068
Al      17.15000000       7.02500000       7.02500000      -0.00428381       0.02972959       0.52306694
Al      19.17500000       5.00000000       7.02500000       0.03042168      -0.60493073       0.21879172
Al      19.17500000       7.02500000       5.00000000       0.04069670       0.32823530      -0.64013649
Al      17.15908675       4.79414373       9.02998292      -0.00053671      -0.00537824       0.06147071
Al      17.15463539       6.96327117      11.05698826      -0.00356678      -0.00307754      -0.04114638
Al      19.18258922       4.81467276      11.10180073       0.00063139      -0.00443097      -0.05953208
Al      19.16904242       6.99080364       9.06506139       0.00130260      -0.00745303       0.04181537
Al      17.15000000       5.00000000      13.10000000       0.00687904      -0.63090960      -0.22062895
Al      17.15000000       7.02500000      15.12500000       0.00647877       0.32991161       0.64045556
Al      19.17500000       5.00000000      15.12500000       0.03754859      -0.19830079       0.17056163
Al      19.17500000       7.02500000      13.10000000       0.05438447       0.06972076      -0.53633091
Al      17.15000000       9.05000000       5.00000000       0.00666829      -0.04076801      -0.70377803
Al      17.15000000      11.07500000       7.02500000      -0.00410867       0.00410867       0.34529972
Al      19.17500000       9.05000000       7.02500000       0.09415738      -0.09415738       0.41391184
Al      19.17500000      11.07500000       5.00000000       0.04076801      -0.00666829      -0.70377803
Al      17.14454230       9.03984571       9.05148064      -0.00605833       0.00540433       0.04329657
Al      17.12850717      11.09649283      11.07698604      -0.00717009       0.00717009      -0.04019986
Al      19.16913485       9.05586515      11.07532485      -0.00251901       0.00251901      -0.03945685
Al      19.18515429      11.08045770       9.05148064      -0.00540433       0.00605833       0.04329657
Al      17.15000000       9.05000000      13.10000000       0.00352937      -0.11184020      -0.37916246
Al      17.15000000      11.07500000      15.12500000       0.00775667      -0.00775667       0.70192448
Al      19.17500000       9.05000000      15.12500000       0.04047201      -0.04047201       0.70224788
Al      19.17500000      11.07500000      13.10000000       0.11184020      -0.00352937      -0.37916246
Al      17.15000000      13.10000000       5.00000000       0.00774589       0.00216113      -0.70513033
Al      17.15000000      15.12500000       7.02500000      -0.06238350       0.00489963       0.38909913
Al      19.17500000      13.10000000       7.02500000       0.11998789       0.00225430       0.38589526
Al      19.17500000      15.12500000       5.00000000       0.04181665      -0.00258643      -0.70361902
Al      17.14178502      13.11240638       9.05770984      -0.01524541       0.00089074       0.04320535
Al      17.17845405      15.12477398      11.07950101      -0.01442898       0.00026174      -0.03970618
Al      19.20485408      13.09734944      11.07457726      -0.00470993      -0.00039527      -0.03949139
Al      19.20329022      15.12522922       9.04750298      -0.00433102       0.00095078       0.04185236
Al      17.15000000      13.10000000      13.10000000      -0.01067716       0.01402004      -0.33743738
Al      17.15000000      15.12500000      15.12500000       0.00658560      -0.00316027       0.69768219
Al      19.17500000      13.10000000      15.12500000       0.04165869       0.00246172       0.70143769
Al      19.17500000      15.12500000      13.10000000       0.18684297      -0.00277060      -0.32951638
Al      17.15000000      17.15000000       5.00000000       0.00795766       0.00809804      -0.70585176
Al      17.15000000      19.17500000       7.02500000      -0.02103784       0.10645826       0.39801428
Al      19.17500000      17.15000000       7.02500000       0.10546960       0.01142772       0.38915793
Al      19.17500000      19.17500000       5.00000000       0.04076202       0.04105160      -0.70337069
Al      17.13723878      17.14218718       9.05892170      -0.01160642      -0.00894719       0.04373379
Al      17.12596052      19.16872342      11.07658411      -0.00558300      -0.00388149      -0.03908093
Al      19.19684924      17.15285786      11.07445900      -0.00555449      -0.00627376      -0.04084864
Al      19.17112246      19.17302403       9.05134556      -0.00405041      -0.00275294       0.04200249
Al      17.15000000      17.15000000      13.10000000      -0.01962007       0.01346088      -0.35270619
Al      17.15000000      19.17500000      15.12500000       0.00743809       0.04138976       0.70376313
Al      19.17500000      17.15000000      15.12500000       0.04172066       0.00670416       0.70154356
Al      19.17500000      19.17500000      13.10000000       0.08126563       0.09993604      -0.42076928
Al      17.15000000      21.20000000       5.00000000       0.00686696      -0.32931048      -0.64218447
Al      17.15000000      23.22500000       7.02500000       0.00902471       0.62003417       0.22923028
Al      19.17500000      21.20000000       7.02500000       0.05010589      -0.07162615       0.53801555
Al      19.17500000      23.22500000       5.00000000       0.03786762       0.19810788      -0.17157866
Al      17.14842957      21.25352418       9.06828096      -0.00446947       0.00191119       0.04276258
Al      17.15972172      23.43079100      11.09422350      -0.00195175       0.00550210      -0.05957720
Al      19.16275042      21.22791680      11.06065384       0.00025246       0.00719274      -0.04014556
Al      19.18086777      23.40394620       9.02376283      -0.00018742       0.00520934       0.06060662
Al      17.15000000      21.20000000      13.10000000      -0.01131931      -0.04462307      -0.53312489
Al      17.15000000      23.22500000      15.12500000       0.00768879       0.20323585       0.17290576
Al      19.17500000      21.20000000      15.12500000       0.04162279      -0.32792506       0.63978235
Al      19.17500000      23.22500000      13.10000000       0.02955916       0.59749701      -0.22380328
Al      21.20000000       5.00000000       5.00000000      -0.45270337      -0.09654427      -0.08196703
Al      21.20000000       7.02500000       7.02500000      -0.14533724       0.14533724       0.65287159
Al      23.22500000       5.00000000       7.02500000       0.05347592      -0.05347592       0.51534787
Al      23.22500000       7.02500000       5.00000000       0.09654427       0.45270337      -0.08196703
Al      21.17821534       4.87822402       9.04220649       0.00317778      -0.00446895       0.05789397
Al      21.19662102       7.02837898      11.04694145       0.00728653      -0.00728653      -0.04222432
Al      23.24739409       4.97760591      11.08015085       0.00758374      -0.00758374      -0.07197170
Al      23.34677598       7.04678466       9.04220649       0.00446895      -0.00317778       0.05789397
Al      21.20000000       5.00000000      13.10000000      -0.24384391      -0.49800765      -0.35975640
Al      21.20000000       7.02500000      15.12500000      -0.32383803       0.32383803       0.58309725
Al      23.22500000       5.00000000      15.12500000      -0.32785748       0.32785748      -0.33635034
Al      23.22500000       7.02500000      13.10000000       0.49800765       0.24384391      -0.35975640
Al      21.20000000       9.05000000       5.00000000      -0.32823530      -0.04069670      -0.64013649
Al      21.20000000      11.07500000       7.02500000      -0.02972959       0.00428381       0.52306694
Al      23.22500000       9.05000000       7.02500000       0.60493073      -0.03042168       0.21879172
Al      23.22500000      11.07500000       5.00000000       0.20391457      -0.00701430      -0.17311068
Al      21.23419636       9.05595758       9.06506139       0.00745303      -0.00130260       0.04181537
Al      21.26172883      11.07036461      11.05698826       0.00307754       0.00356678      -0.04114638
Al      23.41032724       9.04241078      11.10180073       0.00443097      -0.00063139      -0.05953208
Al      23.43085627      11.06591325       9.02998292       0.00537824       0.00053671       0.06147071
Al      21.20000000       9.05000000      13.10000000      -0.06972076      -0.05438447      -0.53633091
Al      21.20000000      11.07500000      15.12500000      -0.32991161      -0.00647877       0.64045556
Al      23.22500000       9.05000000      15.12500000       0.19830079      -0.03754859       0.17056163
Al      23.22500000      11.07500000      13.10000000       0.63090960      -0.00687904      -0.22062895
Al      21.20000000      13.10000000       5.00000000      -0.32994822       0.00356731      -0.64167216
Al      21.20000000      15.12500000       7.02500000       0.00246641      -0.00218584       0.51750527
Al      23.22500000      13.10000000       7.02500000       0.64097311      -0.00934446       0.23076005
Al      23.22500000      15.12500000       5.00000000       0.20446761      -0.00226803      -0.17246090
Al      21.26918068      13.09730172       9.06849366       0.00202337      -0.00016116       0.04184850
Al      21.26787566      15.12696294      11.05545957       0.00166922      -0.00004940      -0.03973593
Al      23.43571228      13.09819094      11.09676175       0.00505828      -0.00003967      -0.05870894
Al      23.43588125      15.12716021       9.02802475       0.00539420      -0.00073586       0.06050514
Al      21.20000000      13.10000000      13.10000000      -0.00183020       0.00277183      -0.52016446
Al      21.20000000      15.12500000      15.12500000      -0.32959620      -0.00321808       0.64112133
Al      23.22500000      13.10000000      15.12500000       0.20382874       0.00257809       0.17219882
Al      23.22500000      15.12500000      13.10000000       0.63661660       0.01045816      -0.23382502
Al      21.20000000      17.15000000       5.00000000      -0.32959274       0.00669613      -0.64102259
Al      21.20000000      19.17500000       7.02500000      -0.06860722       0.05780320       0.53684778
Al      23.22500000      17.15000000       7.02500000       0.63346792       0.00763158       0.21782524
Al      23.22500000      19.17500000       5.00000000       0.19902388       0.03803683      -0.17048787
Al      21.26195705      17.15507406       9.06690374       0.00323769      -0.00339893       0.04333758
Al      21.23882778      19.17262784      11.05985617       0.00727781       0.00080508      -0.04068176
Al      23.42983069      17.15899793      11.09476740       0.00531825      -0.00120494      -0.06015506
Al      23.41180434      19.18272564       9.02259281       0.00491248       0.00061613       0.06107006
Al      21.20000000      17.15000000      13.10000000      -0.01407492      -0.00325869      -0.50994341