299
Lattice="28.224999999999998 0.0 0.0 0.0 28.224999999999998 0.0 0.0 0.0 20.125" Properties=species:S:1:pos:R:3:forces:R:3 energy=-16469.2968494366 pbc="T T T"
Al       5.00000000       5.00000000       5.00000000       0.33132727       0.33109328       0.33714307
Al       5.00000000       7.02500000       7.02500000      -0.48686508       0.24951906       0.39716612
Al       7.02500000       5.00000000       7.02500000       0.24595425      -0.48741162       0.39219379
Al       7.02500000       7.02500000       5.00000000       0.32351260       0.32413799      -0.57773643
Al       4.97763981       4.97742794       9.05259358      -0.01581867      -0.01488044      -0.00080640
Al       4.88332219       7.04804048      11.07539459      -0.00802742       0.00081548       0.03238757
Al       7.04635031       4.87425209      11.07601989      -0.00204848      -0.00772128       0.03168113
Al       7.02832586       7.02676440       9.08561212      -0.00755281      -0.00399944      -0.06897215
Al       5.00000000       5.00000000      13.10000000      -0.04285100      -0.03903715      -0.54104530
Al       5.00000000       7.02500000      15.12500000      -0.09079202       0.45286030       0.08182372
Al       7.02500000       5.00000000      15.12500000       0.45202792      -0.09163444       0.08088533
Al       7.02500000       7.02500000      13.10000000       0.15105411       0.15342611      -0.69109432
Al       5.00000000       9.05000000       5.00000000      -0.19220885      -0.04192782      -0.16825493
Al       5.00000000      11.07500000       7.02500000      -0.60990417      -0.01362042       0.27070830
Al       7.02500000       9.05000000       7.02500000       0.07814483      -0.05480317       0.57939358
Al       7.02500000      11.07500000       5.00000000       0.32273793      -0.01579484      -0.63474808
Al       4.82127468       9.04387901       9.03108270      -0.00151459       0.00349180      -0.03283870
Al       4.79427784      11.06505181      11.08703147      -0.00272476       0.00107710       0.02302100
Al       6.99721887       9.06189935      11.05369325      -0.00944840       0.00266282       0.06588037
Al       6.97154323      11.07628163       9.07524486      -0.00378767       0.00217440      -0.06601669
Al       5.00000000       9.05000000      13.10000000      -0.58804410      -0.03183866      -0.26421249
Al       5.00000000      11.07500000      15.12500000      -0.20352212      -0.01228972       0.17120443
Al       7.02500000       9.05000000      15.12500000       0.32382280      -0.04870699       0.63449587
Al       7.02500000      11.07500000      13.10000000       0.04568633       0.00289134      -0.58161006
Al       5.00000000      13.10000000       5.00000000      -0.20497132       0.00042327      -0.16948301
Al       5.00000000      15.12500000       7.02500000      -0.63944632       0.01211442       0.26795000
Al       7.02500000      13.10000000       7.02500000       0.03789575      -0.00036961       0.60081913
Al       7.02500000      15.12500000       5.00000000       0.31988918       0.00062392      -0.63664309
Al       4.78683492      13.09715822       9.03452438      -0.00300692      -0.00155636      -0.02690769
Al       4.78901940      15.12733547      11.08876995      -0.00465382      -0.00111824       0.02412915
Al       6.95253588      13.09565064      11.04773509      -0.00521446      -0.00202554       0.05795061
Al       6.95397468      15.12724124       9.07381805      -0.00508899      -0.00104549      -0.06592902
Al       5.00000000      13.10000000      13.10000000      -0.63730872      -0.01167420      -0.27625865
Al       5.00000000      15.12500000      15.12500000      -0.20756154      -0.00063471       0.17150692
Al       7.02500000      13.10000000      15.12500000       0.31757479      -0.00116140       0.63727675
Al       7.02500000      15.12500000      13.10000000      -0.03076907       0.00057558      -0.54798014
Al       5.00000000      17.15000000       5.00000000      -0.20157003       0.01202594      -0.17017184
Al       5.00000000      19.17500000       7.02500000      -0.58670296       0.03277848       0.25610801
Al       7.02500000      17.15000000       7.02500000       0.05254025       0.00408209       0.58579427
Al       7.02500000      19.17500000       5.00000000       0.32562481       0.04861136      -0.63399245
Al       4.79299280      17.16040116       9.03652406      -0.00457195      -0.00245711      -0.02776964
Al       4.81354139      19.18384075      11.09428422      -0.00569628      -0.00447532       0.03052967
Al       6.95975001      17.15704501      11.04920552      -0.00653686      -0.00620700       0.06305232
Al       6.99471654      19.16688422       9.07279366      -0.00706748      -0.00365799      -0.07464119
Al       5.00000000      17.15000000      13.10000000      -0.62851761       0.01209025      -0.26174853
Al       5.00000000      19.17500000      15.12500000      -0.19590911       0.04246223       0.16977462
Al       7.02500000      17.15000000      15.12500000       0.32006319       0.01542899       0.63671176
Al       7.02500000      19.17500000      13.10000000       0.08673701       0.05581964      -0.58895176
Al       5.00000000      21.20000000       5.00000000      -0.08882146      -0.45365129      -0.08091261
Al       5.00000000      23.22500000       7.02500000      -0.03888384       0.03888384       0.54174992
Al       7.02500000      21.20000000       7.02500000       0.15883404      -0.15883404       0.68343448
Al       7.02500000      23.22500000       5.00000000       0.45365129       0.08882146      -0.08091261
Al       4.88192869      21.17656977       9.04906197      -0.00870735       0.00030147      -0.03744872
Al       4.98125968      23.24374032      11.07094649      -0.01792940       0.01792940      -0.00048340
Al       7.03401580      21.19098420      11.04046836      -0.00772172       0.00772172       0.06777912
Al       7.04843023      23.34307131       9.04906197      -0.00030147       0.00870735      -0.03744872
Al       5.00000000      21.20000000      13.10000000      -0.48361532      -0.24710107      -0.39598637
Al       5.00000000      23.22500000      15.12500000       0.32988706      -0.32988706      -0.33475011
Al       7.02500000      21.20000000      15.12500000       0.32215010      -0.32215010       0.58135153
Al       7.02500000      23.22500000      13.10000000       0.24710107       0.48361532      -0.39598637
Al       9.05000000       5.00000000       5.00000000      -0.04292338      -0.19317884      -0.16767061
Al       9.05000000       7.02500000       7.02500000      -0.06265663       0.07535741       0.57729376
Al      11.07500000       5.00000000       7.02500000      -0.01287442      -0.62396198       0.25818781
Al      11.07500000       7.02500000       5.00000000      -0.01687038       0.32332492      -0.63436764
Al       9.04235666       4.81347678       9.02998073       0.00064531      -0.00318633      -0.03329911
Al       9.05251116       6.98601814      11.05291362      -0.00141017      -0.00623846       0.06551176
Al      11.06607107       4.79544818      11.08760509      -0.00236663      -0.00619726       0.02284040
Al      11.07006260       6.96293374       9.07397219      -0.00146491      -0.00412381      -0.06869133
Al       9.05000000       5.00000000      13.10000000      -0.03370607      -0.60100027      -0.25213118
Al       9.05000000       7.02500000      15.12500000      -0.05025149       0.32482739       0.63416321
Al      11.07500000       5.00000000      15.12500000      -0.01419743      -0.20447485       0.17225662
Al      11.07500000       7.02500000      13.10000000      -0.00690568       0.01663259      -0.55724675
Al       9.05000000       9.05000000       5.00000000      -0.05357750      -0.05231944      -0.69383412
Al       9.05000000      11.07500000       7.02500000      -0.11726778       0.00862058       0.45371808
Al      11.07500000       9.05000000       7.02500000      -0.02407112      -0.11607744       0.44398112
Al      11.07500000      11.07500000       5.00000000      -0.02471867      -0.02287458      -0.69997424
Al       9.05216307       9.05355734       9.05871214      -0.00154199       0.00432226      -0.07551138
Al       9.05649806      11.09860039      11.06958609      -0.00758110      -0.00009460       0.06274786
Al      11.07228638       9.02788704      11.06748977      -0.00217599       0.00000472       0.06111474
Al      11.08317596      11.08752036       9.06602314      -0.00612939       0.00403681      -0.06480518
Al       9.05000000       9.05000000      13.10000000      -0.10862474      -0.08909284      -0.47211741
Al       9.05000000      11.07500000      15.12500000      -0.05966580      -0.02044175       0.69836499
Al      11.07500000       9.05000000      15.12500000      -0.02191612      -0.05784345       0.69668818
Al      11.07500000      11.07500000      13.10000000      -0.03202566       0.00089876      -0.41559254
Al       9.05000000      13.10000000       5.00000000      -0.06032485      -0.00305009      -0.70030388
Al       9.05000000      15.12500000       7.02500000      -0.06926104       0.00432079       0.50671153
Al      11.07500000      13.10000000       7.02500000      -0.01034956       0.03655728       0.40075838
Al      11.07500000      15.12500000       5.00000000      -0.02342873       0.00428146      -0.70339281
Al       9.04012149      13.11144278       9.06512893      -0.00097916      -0.00307368      -0.06458340
Al       9.00419199      15.12546152      11.07110092      -0.00492474       0.00112697       0.05898355
Al      11.13997892      13.17432939      11.08695147      -0.01657527      -0.01218893       0.06568244
Al      11.10710981      15.12585219       9.08895724       0.02457142       0.00426005      -0.04965894
Al       9.05000000      13.10000000      13.10000000      -0.12404980       0.01235492      -0.46187808
Al       9.05000000      15.12500000      15.12500000      -0.06262664       0.00235045       0.69812775
Al      11.07500000      13.10000000      15.12500000      -0.03744575      -0.01437737       0.72166490
Al      11.07500000      15.12500000      13.10000000       0.34328057       0.01359207      -0.52629767
Al       9.05000000      17.15000000       5.00000000      -0.05702283       0.01969621      -0.69903866
Al       9.05000000      19.17500000       7.02500000      -0.08242215       0.08242215       0.48305946
Al      11.07500000      17.15000000       7.02500000       0.00076045      -0.00076045       0.40735635
Al      11.07500000      19.17500000       5.00000000      -0.01969621       0.05702283      -0.69903866
Al       9.04768223      17.13975777       9.06569103       0.00570510      -0.00596263      -0.07012761
Al       9.07040171      19.15459829      11.06934045       0.00030372      -0.00030372       0.07420953
Al      11.14476424      17.08023576      11.08576596      -0.01284719       0.01284719       0.06984583
Al      11.08524223      19.17731777       9.06569103       0.00596263      -0.00570510      -0.07012761
Al       9.05000000      17.15000000      13.10000000      -0.10628800       0.00661611      -0.46150455
Al       9.05000000      19.17500000      15.12500000      -0.05427345       0.05427345       0.69831350
Al      11.07500000      17.15000000      15.12500000      -0.03415059       0.03415059       0.72003798
Al      11.07500000      19.17500000      13.10000000      -0.00661611       0.10628800      -0.46150455
Al       9.05000000      21.20000000       5.00000000      -0.04861136      -0.32562481      -0.63399245
Al       9.05000000      23.22500000       7.02500000      -0.03277848       0.58670296       0.25610801
Al      11.07500000      21.20000000       7.02500000      -0.00408209      -0.05254025       0.58579427
Al      11.07500000      23.22500000       5.00000000      -0.01202594       0.20157003      -0.17017184
Al       9.05811578      21.23028346       9.07279366       0.00365799       0.00706748      -0.07464119
Al       9.04115925      23.41145861      11.09428422       0.00447532       0.00569628       0.03052967
Al      11.06795499      21.26524999      11.04920552       0.00620700       0.00653686       0.06305232
Al      11.06459884      23.43200720       9.03652406       0.00245711       0.00457195      -0.02776964
Al       9.05000000      21.20000000      13.10000000      -0.05581964      -0.08673701      -0.58895176
Al       9.05000000      23.22500000      15.12500000      -0.04246223       0.19590911       0.16977462
Al      11.07500000      21.20000000      15.12500000      -0.01542899      -0.32006319       0.63671176
Al      11.07500000      23.22500000      13.10000000      -0.01209025       0.62851761      -0.26174853
Al      13.10000000       5.00000000       5.00000000      -0.00101957      -0.20553538      -0.17081954
Al      13.10000000       7.02500000       7.02500000      -0.00327414      -0.00105862       0.56374557
Al      15.12500000       5.00000000       7.02500000       0.00977173      -0.63475438       0.27134981
Al      15.12500000       7.02500000       5.00000000      -0.00084161       0.32047231      -0.63723075
Al      13.09790543       4.78942673       9.03544481      -0.00265669      -0.00638318      -0.02864971
Al      13.09821652       6.95704827      11.04880758      -0.00586228      -0.00530414       0.05782789
Al      15.12688068       4.78967518      11.08956859      -0.00069261      -0.00958732       0.02260808
Al      15.12778529       6.95580996       9.07548086      -0.00015972      -0.00554777      -0.06807114
Al      13.10000000       5.00000000      13.10000000      -0.01435709      -0.63425493      -0.27709529
Al      13.10000000       7.02500000      15.12500000      -0.00341858       0.31873498       0.63907791
Al      15.12500000       5.00000000      15.12500000      -0.00211699      -0.20949546       0.17338395
Al      15.12500000       7.02500000      13.10000000      -0.00203399       0.00043148      -0.56866020
Al      13.10000000       9.05000000       5.00000000      -0.00433966      -0.05966656      -0.69808041
Al      13.10000000      11.07500000       7.02500000      -0.01311100       0.04463263       0.45087099
Al      15.12500000       9.05000000       7.02500000       0.00149565      -0.13303810       0.44178038
Al      15.12500000      11.07500000       5.00000000       0.00298414      -0.02436832      -0.70347492
Al      13.09993885       9.02153683       9.05461327      -0.00727447      -0.00477068      -0.06977274
Al      13.10055672      11.04646381      11.07263096      -0.01073878      -0.00174201       0.05536801
Al      15.12792492       9.02007619      11.06784396      -0.00137499      -0.00495906       0.05745826
Al      15.11281567      11.08325334       9.06490825       0.00120409       0.00259865      -0.06656047
Al      13.10000000       9.05000000      13.10000000      -0.00616707      -0.20100791      -0.38919936
Al      13.10000000      11.07500000      15.12500000      -0.00649960      -0.02597791       0.70016864
Al      15.12500000       9.05000000      15.12500000       0.00015604      -0.06062462       0.70056232
Al      15.12500000      11.07500000      13.10000000      -0.00836274      -0.00891435      -0.40110964
Al      13.10000000      13.10000000       5.00000000      -0.00596163      -0.00186888      -0.70656402
Al      13.10000000      15.12500000       7.02500000      -0.01547195       0.01547195       0.11416225
Al      15.12500000      13.10000000       7.02500000      -0.03636412       0.03636412       0.38916678
Al      15.12500000      15.12500000       5.00000000       0.00186888       0.00596163      -0.70656402
Al      13.09810037      13.14166843       9.08991359      -0.00844665       0.02901135      -0.04954423
Al      15.05061350      13.17438650      11.08769857       0.00866264      -0.00866264       0.06620957
Al      15.08333157      15.12689963       9.08991359      -0.02901135       0.00844665      -0.04954423
Al      13.10000000      13.10000000      13.10000000      -0.02319242       0.38174814      -0.50994864
Al      13.10000000      15.12500000      15.12500000      -0.00563808       0.00563808       0.86341134
Al      15.12500000      13.10000000      15.12500000       0.01357070      -0.01357070       0.72507143
Al      15.12500000      15.12500000      13.10000000      -0.38174814       0.02319242      -0.50994864
Al      13.10000000      17.15000000       5.00000000      -0.00428146       0.02342873      -0.70339281
Al      13.10000000      19.17500000       7.02500000      -0.00432079       0.06926104       0.50671153
Al      15.12500000      17.15000000       7.02500000      -0.03655728       0.01034956       0.40075838
Al      15.12500000      19.17500000       5.00000000       0.00305009       0.06032485      -0.70030388
Al      13.09914781      17.11789019       9.08895724      -0.00426005      -0.02457142      -0.04965894
Al      13.09953848      19.22080801      11.07110092      -0.00112697       0.00492474       0.05898355
Al      15.05067061      17.08502108      11.08695147       0.01218893       0.01657527       0.06568244
Al      15.11355722      19.18487851       9.06512893       0.00307368       0.00097916      -0.06458340
Al      13.10000000      17.15000000      13.10000000      -0.01359207      -0.34328057      -0.52629767
Al      13.10000000      19.17500000      15.12500000      -0.00235045       0.06262664       0.69812775
Al      15.12500000      17.15000000      15.12500000       0.01437737       0.03744575       0.72166490
Al      15.12500000      19.17500000      13.10000000      -0.01235492       0.12404980      -0.46187808
Al      13.10000000      21.20000000       5.00000000      -0.00062392      -0.31988918      -0.63664309
Al      13.10000000      23.22500000       7.02500000      -0.01211442       0.63944632       0.26795000
Al      15.12500000      21.20000000       7.02500000       0.00036961      -0.03789575       0.60081913
Al      15.12500000      23.22500000       5.00000000      -0.00042327       0.20497132      -0.16948301
Al      13.09775876      21.27102532       9.07381805       0.00104549       0.00508899      -0.06592902
Al      13.09766453      23.43598060      11.08876995       0.00111824       0.00465382       0.02412915
Al      15.12934936      21.27246412      11.04773509       0.00202554       0.00521446       0.05795061
Al      15.12784178      23.43816508       9.03452438       0.00155636       0.00300692      -0.02690769
Al      13.10000000      21.20000000      13.10000000      -0.00057558       0.03076907      -0.54798014
Al      13.10000000      23.22500000      15.12500000       0.00063471       0.20756154       0.17150692
Al      15.12500000      21.20000000      15.12500000       0.00116140      -0.31757479       0.63727675
Al      15.12500000      23.22500000      13.10000000       0.01167420       0.63730872      -0.27625865
Al      17.15000000       5.00000000       5.00000000       0.01143562      -0.20275565      -0.17182793
Al      17.15000000       7.02500000       7.02500000       0.00233107       0.03336661       0.56581944
Al      19.17500000       5.00000000       7.02500000       0.03241602      -0.59461689       0.25498457
Al      19.17500000       7.02500000       5.00000000       0.04807781       0.32545282      -0.63488204
Al      17.15912729       4.79454035       9.03734642      -0.00010440      -0.00738578      -0.02932891
Al      17.15468303       6.96344885      11.05022237      -0.00265981      -0.00766348       0.05971608
Al      19.18255637       4.81518172      11.09461254      -0.00116273      -0.00903476       0.02760883
Al      19.16899293       6.99096924       9.07225342       0.00041525      -0.00894605      -0.07582731
Al      17.15000000       5.00000000      13.10000000       0.01019343      -0.62792847      -0.26253396
Al      17.15000000       7.02500000      15.12500000       0.01419162       0.32056913       0.63924458
Al      19.17500000       5.00000000      15.12500000       0.04267187      -0.19846373       0.17172231
Al      19.17500000       7.02500000      13.10000000       0.05952052       0.07276313      -0.57782281
Al      17.15000000       9.05000000       5.00000000       0.01843724      -0.05633152      -0.69786974
Al      17.15000000      11.07500000       7.02500000       0.00997773      -0.00997773       0.40419725
Al      19.17500000       9.05000000       7.02500000       0.10066201      -0.10066201       0.45978634
Al      19.17500000      11.07500000       5.00000000       0.05633152      -0.01843724      -0.69786974
Al      17.14471867       9.03984756       9.05882361      -0.00305306      -0.00000183      -0.07334952
Al      17.12863426      11.09636574      11.07013473       0.00379959      -0.00379959       0.05808710
Al      19.16909609       9.05590391      11.06822426       0.00055127      -0.00055127       0.06786425
Al      19.18515244      11.08028133       9.05882361       0.00000183       0.00305306      -0.07334952
Al      17.15000000       9.05000000      13.10000000       0.01358965      -0.12327898      -0.43480459
Al      17.15000000      11.07500000      15.12500000       0.02253627      -0.02253627       0.70261757
Al      19.17500000       9.05000000      15.12500000       0.05288791      -0.05288791       0.69951971
Al      19.17500000      11.07500000      13.10000000       0.12327898      -0.01358965      -0.43480459
Al      17.15000000      13.10000000       5.00000000       0.02436832      -0.00298414      -0.70347492
Al      17.15000000      15.12500000       7.02500000      -0.04463263       0.01311100       0.45087099
Al      19.17500000      13.10000000       7.02500000       0.13303810      -0.00149565       0.44178038
Al      19.17500000      15.12500000       5.00000000       0.05966656       0.00433966      -0.69808041
Al      17.14174666      13.11218433       9.06490825      -0.00259865      -0.00120409      -0.06656047
Al      17.17853619      15.12444328      11.07263096       0.00174201       0.01073878       0.05536801
Al      19.20492381      13.09707508      11.06784396       0.00495906       0.00137499       0.05745826
Al      19.20346317      15.12506115       9.05461327       0.00477068       0.00727447      -0.06977274
Al      17.15000000      13.10000000      13.10000000       0.00891435       0.00836274      -0.40110964
Al      17.15000000      15.12500000      15.12500000       0.02597791       0.00649960       0.70016864
Al      19.17500000      13.10000000      15.12500000       0.06062462      -0.00015604       0.70056232
Al      19.17500000      15.12500000      13.10000000       0.20100791       0.00616707      -0.38919936
Al      17.15000000      17.15000000       5.00000000       0.02287458       0.02471867      -0.69997424
Al      17.15000000      19.17500000       7.02500000      -0.00862058       0.11726778       0.45371808
Al      19.17500000      17.15000000       7.02500000       0.11607744       0.02407112       0.44398112
Al      19.17500000      19.17500000       5.00000000       0.05231944       0.05357750      -0.69383412
Al      17.13747964      17.14182404       9.06602314      -0.00403681       0.00612939      -0.06480518
Al      17.12639961      19.16850194      11.06958609       0.00009460       0.00758110       0.06274786
Al      19.19711296      17.15271362      11.06748977      -0.00000472       0.00217599       0.06111474
Al      19.17144266      19.17283693       9.05871214      -0.00432226       0.00154199      -0.07551138
Al      17.15000000      17.15000000      13.10000000      -0.00089876       0.03202566      -0.41559254
Al      17.15000000      19.17500000      15.12500000       0.02044175       0.05966580       0.69836499
Al      19.17500000      17.15000000      15.12500000       0.05784345       0.02191612       0.69668818
Al      19.17500000      19.17500000      13.10000000       0.08909284       0.10862474      -0.47211741
Al      17.15000000      21.20000000       5.00000000       0.01579484      -0.32273793      -0.63474808
Al      17.15000000      23.22500000       7.02500000       0.01362042       0.60990417       0.27070830
Al      19.17500000      21.20000000       7.02500000       0.05480317      -0.07814483       0.57939358
Al      19.17500000      23.22500000       5.00000000       0.04192782       0.19220885      -0.16825493
Al      17.14871837      21.25345677       9.07524486      -0.00217440       0.00378767      -0.06601669
Al      17.15994819      23.43072216      11.08703147      -0.00107710       0.00272476       0.02302100
Al      19.16310065      21.22778113      11.05369325      -0.00266282       0.00944840       0.06588037
Al      19.18112099      23.40372532       9.03108270      -0.00349180       0.00151459      -0.03283870
Al      17.15000000      21.20000000      13.10000000      -0.00289134      -0.04568633      -0.58161006
Al      17.15000000      23.22500000      15.12500000       0.01228972       0.20352212       0.17120443
Al      19.17500000      21.20000000      15.12500000       0.04870699      -0.32382280       0.63449587
Al      19.17500000      23.22500000      13.10000000       0.03183866       0.58804410      -0.26421249
Al      21.20000000       5.00000000       5.00000000      -0.45292010      -0.09067499      -0.08193048
Al      21.20000000       7.02500000       7.02500000      -0.15182536       0.15182536       0.68428594
Al      23.22500000       5.00000000       7.02500000       0.04147734      -0.04147734       0.53762505
Al      23.22500000       7.02500000       5.00000000       0.09067499       0.45292010      -0.08193048
Al      21.17813917       4.87869478       9.04949265       0.00172138      -0.01023964      -0.03793283
Al      21.19651600       7.02848400      11.04017397       0.00920542      -0.00920542       0.06180685
Al      23.24710830       4.97789170      11.07278708       0.01971651      -0.01971651      -0.00303638
Al      23.34630522       7.04686083       9.04949265       0.01023964      -0.00172138      -0.03793283
Al      21.20000000       5.00000000      13.10000000      -0.24535517      -0.49274766      -0.39344240
Al      21.20000000       7.02500000      15.12500000      -0.32102962       0.32102962       0.58285050
Al      23.22500000       5.00000000      15.12500000      -0.32748299       0.32748299      -0.33479511
Al      23.22500000       7.02500000      13.10000000       0.49274766       0.24535517      -0.39344240
Al      21.20000000       9.05000000       5.00000000      -0.32545282      -0.04807781      -0.63488204
Al      21.20000000      11.07500000       7.02500000      -0.03336661      -0.00233107       0.56581944
Al      23.22500000       9.05000000       7.02500000       0.59461689      -0.03241602       0.25498457
Al      23.22500000      11.07500000       5.00000000       0.20275565      -0.01143562      -0.17182793
Al      21.23403076       9.05600707       9.07225342       0.00894605      -0.00041525      -0.07582731
Al      21.26155115      11.07031697      11.05022237       0.00766348       0.00265981       0.05971608
Al      23.40981828       9.04244363      11.09461254       0.00903476       0.00116273       0.02760883
Al      23.43045965      11.06587271       9.03734642       0.00738578       0.00010440      -0.02932891
Al      21.20000000       9.05000000      13.10000000      -0.07276313      -0.05952052      -0.57782281
Al      21.20000000      11.07500000      15.12500000      -0.32056913      -0.01419162       0.63924458
Al      23.22500000       9.05000000      15.12500000       0.19846373      -0.04267187       0.17172231
Al      23.22500000      11.07500000      13.10000000       0.62792847      -0.01019343      -0.26253396
Al      21.20000000      13.10000000       5.00000000      -0.32047231       0.00084161      -0.63723075
Al      21.20000000      15.12500000       7.02500000       0.00105862       0.00327414       0.56374557
Al      23.22500000      13.10000000       7.02500000       0.63475438      -0.00977173       0.27134981
Al      23.22500000      15.12500000       5.00000000       0.20553538       0.00101957      -0.17081954
Al      21.26919004      13.09721471       9.07548086       0.00554777       0.00015972      -0.06807114
Al      21.26795173      15.12678348      11.04880758       0.00530414       0.00586228       0.05782789
Al      23.43532482      13.09811932      11.08956859       0.00958732       0.00069261       0.02260808
Al      23.43557327      15.12709457       9.03544481       0.00638318       0.00265669      -0.02864971
Al      21.20000000      13.10000000      13.10000000      -0.00043148       0.00203399      -0.56866020
Al      21.20000000      15.12500000      15.12500000      -0.31873498       0.00341858       0.63907791
Al      23.22500000      13.10000000      15.12500000       0.20949546       0.00211699       0.17338395
Al      23.22500000      15.12500000      13.10000000       0.63425493       0.01435709      -0.27709529
Al      21.20000000      17.15000000       5.00000000      -0.32332492       0.01687038      -0.63436764
Al      21.20000000      19.17500000       7.02500000      -0.07535741       0.06265663       0.57729376
Al      23.22500000      17.15000000       7.02500000       0.62396198       0.01287442       0.25818781
Al      23.22500000      19.17500000       5.00000000       0.19317884       0.04292338      -0.16767061
Al      21.26206626      17.15493740       9.07397219       0.00412381       0.00146491      -0.06869133
Al      21.23898186      19.17248884      11.05291362       0.00623846       0.00141017       0.06551176
Al      23.42955182      17.15892893      11.08760509       0.00619726       0.00236663       0.02284040
Al      23.41152322      19.18264334       9.02998073       0.00318633      -0.00064531      -0.03329911
Al      21.20000000      17.15000000      13.10000000      -0.01663259       0.00690568      -0.55724675