299
Lattice="28.224999999999998 0.0 0.0 0.0 28.224999999999998 0.0 0.0 0.0 20.125" Properties=species:S:1:pos:R:3:forces:R:3 energy=-16469.299865630306 pbc="T T T"
Al       5.00000000       5.00000000       5.00000000       0.33126262       0.33118071       0.33918160
Al       5.00000000       7.02500000       7.02500000      -0.48635922       0.24952562       0.38320282
Al       7.02500000       5.00000000       7.02500000       0.24582843      -0.48627551       0.37849350
Al       7.02500000       7.02500000       5.00000000       0.32112643       0.32132832      -0.57299477
Al       4.97752180       4.97750354       9.04950880      -0.01567866      -0.01493438       0.02512052
Al       4.88294444       7.04799645      11.07752555      -0.01215697      -0.00514928       0.00860532
Al       7.04603406       4.87405651      11.07816526      -0.00597163      -0.01154627       0.00785939
Al       7.02794882       7.02667072       9.08562805      -0.01328189      -0.01176330      -0.06519907
Al       5.00000000       5.00000000      13.10000000      -0.04718005      -0.04286937      -0.53120750
Al       5.00000000       7.02500000      15.12500000      -0.09062932       0.45115228       0.07851879
Al       7.02500000       5.00000000      15.12500000       0.45128178      -0.09124842       0.07729978
Al       7.02500000       7.02500000      13.10000000       0.15110966       0.15266288      -0.67663388
Al       5.00000000       9.05000000       5.00000000      -0.19368002      -0.04385701      -0.16575293
Al       5.00000000      11.07500000       7.02500000      -0.60917167      -0.01517597       0.25845074
Al       7.02500000       9.05000000       7.02500000       0.07793545      -0.05643216       0.56969945
Al       7.02500000      11.07500000       5.00000000       0.32251347      -0.01468056      -0.63017609
Al       4.82070637       9.04362046       9.02932218      -0.00485663       0.00305223      -0.01149959
Al       4.79360763      11.06520682      11.08935613      -0.00475032      -0.00036895      -0.00125390
Al       6.99676485       9.06147428      11.05398624      -0.01372937       0.00501166       0.06325849
Al       6.97133575      11.07641181       9.07529392      -0.01044445       0.00077131      -0.06490516
Al       5.00000000       9.05000000      13.10000000      -0.58863065      -0.03479974      -0.25040369
Al       5.00000000      11.07500000      15.12500000      -0.20451759      -0.01326959       0.16908548
Al       7.02500000       9.05000000      15.12500000       0.32267733      -0.05079575       0.63021768
Al       7.02500000      11.07500000      13.10000000       0.04971472       0.00352196      -0.57104694
Al       5.00000000      13.10000000       5.00000000      -0.20498193       0.00109694      -0.16670318
Al       5.00000000      15.12500000       7.02500000      -0.63605650       0.01439901       0.25473824
Al       7.02500000      13.10000000       7.02500000       0.04270838       0.00224338       0.59033288
Al       7.02500000      15.12500000       5.00000000       0.32153828       0.00142256      -0.63007486
Al       4.78609850      13.09733388       9.03225858      -0.00247029      -0.00036707      -0.00291591
Al       4.78828140      15.12729000      11.09137270      -0.00298903       0.00076255      -0.00205993
Al       6.95246188      13.09564238      11.04804768      -0.00964863       0.00220844       0.05587189
Al       6.95400532      15.12737083       9.07372127      -0.01017769      -0.00012568      -0.06389881
Al       5.00000000      13.10000000      13.10000000      -0.63508031      -0.01134875      -0.26189006
Al       5.00000000      15.12500000      15.12500000      -0.20699136       0.00027800       0.16857020
Al       7.02500000      13.10000000      15.12500000       0.32123147       0.00048048       0.63169362
Al       7.02500000      15.12500000      13.10000000      -0.02356981       0.00171945      -0.53701514
Al       5.00000000      17.15000000       5.00000000      -0.20118645       0.01379165      -0.16617749
Al       5.00000000      19.17500000       7.02500000      -0.58435757       0.03534021       0.24393484
Al       7.02500000      17.15000000       7.02500000       0.05575511       0.00554558       0.57667220
Al       7.02500000      19.17500000       5.00000000       0.32410444       0.05069300      -0.62668663
Al       4.79248406      17.16032553       9.03445418      -0.00329577       0.00071692      -0.00384650
Al       4.81313394      19.18418342      11.09642225      -0.00484544      -0.00408161       0.00553550
Al       6.95967004      17.15699845      11.04953181      -0.01096503      -0.00181842       0.05818244
Al       6.99445142      19.16726354       9.07237974      -0.01027135      -0.00451112      -0.06778725
Al       5.00000000      17.15000000      13.10000000      -0.62571890       0.01531147      -0.24969683
Al       5.00000000      19.17500000      15.12500000      -0.19600726       0.04443520       0.16572990
Al       7.02500000      17.15000000      15.12500000       0.32218449       0.01523193       0.63002472
Al       7.02500000      19.17500000      13.10000000       0.08883130       0.05719279      -0.58016971
Al       5.00000000      21.20000000       5.00000000      -0.08718266      -0.45290267      -0.07595330
Al       5.00000000      23.22500000       7.02500000      -0.04092788       0.04092788       0.53317822
Al       7.02500000      21.20000000       7.02500000       0.15978391      -0.15978391       0.67086139
Al       7.02500000      23.22500000       5.00000000       0.45290267       0.08718266      -0.07595330
Al       4.88183592      21.17661962       9.04710307      -0.00936389       0.00427400      -0.01314653
Al       4.98138640      23.24361360      11.07417560      -0.01618448       0.01618448      -0.02776031
Al       7.03375976      21.19124024      11.04090358      -0.01084619       0.01084619       0.05841646
Al       7.04838038      23.34316408       9.04710307      -0.00427400       0.00936389      -0.01314653
Al       5.00000000      21.20000000      13.10000000      -0.48129688      -0.24740826      -0.38225567
Al       5.00000000      23.22500000      15.12500000       0.33031655      -0.33031655      -0.33758004
Al       7.02500000      21.20000000      15.12500000       0.32051133      -0.32051133       0.57450261
Al       7.02500000      23.22500000      13.10000000       0.24740826       0.48129688      -0.38225567
Al       9.05000000       5.00000000       5.00000000      -0.04410208      -0.19432605      -0.16475032
Al       9.05000000       7.02500000       7.02500000      -0.06367628       0.07488047       0.56836178
Al      11.07500000       5.00000000       7.02500000      -0.01365136      -0.62212093       0.24803856
Al      11.07500000       7.02500000       5.00000000      -0.01486544       0.32275031      -0.62909148
Al       9.04175006       4.81302049       9.02824213       0.00282038      -0.00526693      -0.01129060
Al       9.05170634       6.98584573      11.05323125       0.00481165      -0.01282481       0.06305056
Al      11.06594883       4.79481954      11.08986639      -0.00100481      -0.00568678      -0.00078355
Al      11.06977985       6.96294981       9.07407913       0.00146237      -0.01254362      -0.06634230
Al       9.05000000       5.00000000      13.10000000      -0.03521240      -0.60037152      -0.23899526
Al       9.05000000       7.02500000      15.12500000      -0.05039552       0.32261593       0.62917456
Al      11.07500000       5.00000000      15.12500000      -0.01322045      -0.20434494       0.16871918
Al      11.07500000       7.02500000      13.10000000      -0.00434115       0.01982227      -0.54781564
Al       9.05000000       9.05000000       5.00000000      -0.05223126      -0.05184120      -0.68905776
Al       9.05000000      11.07500000       7.02500000      -0.11061947       0.01366817       0.44643993
Al      11.07500000       9.05000000       7.02500000      -0.01817849      -0.11052409       0.43767962
Al      11.07500000      11.07500000       5.00000000      -0.01702465      -0.01604267      -0.68941445
Al       9.05167935       9.05338832       9.05860892       0.00283796       0.00590703      -0.07571963
Al       9.05600568      11.09877206      11.06958743       0.00233992       0.00155941       0.06859689
Al      11.07212839       9.02775358      11.06753021       0.00265927       0.00508915       0.06713988
Al      11.08288377      11.08744651       9.06642695       0.00299540       0.01205713      -0.07212592
Al       9.05000000       9.05000000      13.10000000      -0.10511303      -0.08742682      -0.46368212
Al       9.05000000      11.07500000      15.12500000      -0.05292623      -0.01617004       0.69145892
Al      11.07500000       9.05000000      15.12500000      -0.01543982      -0.05300275       0.68892687
Al      11.07500000      11.07500000      13.10000000      -0.02085543       0.01037250      -0.40778371
Al       9.05000000      13.10000000       5.00000000      -0.05353678      -0.00010532      -0.69128211
Al       9.05000000      15.12500000       7.02500000      -0.06082693       0.00365645       0.49848726
Al      11.07500000      13.10000000       7.02500000       0.00189802       0.04211663       0.39681485
Al      11.07500000      15.12500000       5.00000000      -0.01425147       0.00181729      -0.68797932
Al       9.03940099      13.11134114       9.06511500       0.01404310       0.00308501      -0.06772510
Al       9.00366709      15.12564429      11.07137865       0.00938993      -0.00051847       0.06193256
Al      11.14003283      13.17432584      11.08663614      -0.00629150      -0.00322881       0.07377878
Al      11.10600979      15.12621306       9.08862478       0.04670458      -0.00269480      -0.05206589
Al       9.05000000      13.10000000      13.10000000      -0.11177267       0.01656513      -0.45338574
Al       9.05000000      15.12500000      15.12500000      -0.05395205       0.00135177       0.68793483
Al      11.07500000      13.10000000      15.12500000      -0.02633616      -0.01091384       0.70721932
Al      11.07500000      15.12500000      13.10000000       0.35551788       0.01023831      -0.52109299
Al       9.05000000      17.15000000       5.00000000      -0.05336535       0.01750744      -0.69005082
Al       9.05000000      19.17500000       7.02500000      -0.08146357       0.08146357       0.47659677
Al      11.07500000      17.15000000       7.02500000       0.00806730      -0.00806730       0.40182145
Al      11.07500000      19.17500000       5.00000000      -0.01750744       0.05336535      -0.69005082
Al       9.04726183      17.13970053       9.06556535       0.01287177      -0.00284542      -0.07061995
Al       9.07016718      19.15483282      11.06982154       0.00255819      -0.00255819       0.06998132
Al      11.14470833      17.08029167      11.08538257      -0.00548403       0.00548403       0.07734492
Al      11.08529947      19.17773817       9.06556535       0.00284542      -0.01287177      -0.07061995
Al       9.05000000      17.15000000      13.10000000      -0.09855113       0.00325303      -0.45390554
Al       9.05000000      19.17500000      15.12500000      -0.05228822       0.05228822       0.69056740
Al      11.07500000      17.15000000      15.12500000      -0.02720957       0.02720957       0.70780694
Al      11.07500000      19.17500000      13.10000000      -0.00325303       0.09855113      -0.45390554
Al       9.05000000      21.20000000       5.00000000      -0.05069300      -0.32410444      -0.62668663
Al       9.05000000      23.22500000       7.02500000      -0.03534021       0.58435757       0.24393484
Al      11.07500000      21.20000000       7.02500000      -0.00554558      -0.05575511       0.57667220
Al      11.07500000      23.22500000       5.00000000      -0.01379165       0.20118645      -0.16617749
Al       9.05773646      21.23054858       9.07237974       0.00451112       0.01027135      -0.06778725
Al       9.04081658      23.41186606      11.09642225       0.00408161       0.00484544       0.00553550
Al      11.06800155      21.26532996      11.04953181       0.00181842       0.01096503       0.05818244
Al      11.06467447      23.43251594       9.03445418      -0.00071692       0.00329577      -0.00384650
Al       9.05000000      21.20000000      13.10000000      -0.05719279      -0.08883130      -0.58016971
Al       9.05000000      23.22500000      15.12500000      -0.04443520       0.19600726       0.16572990
Al      11.07500000      21.20000000      15.12500000      -0.01523193      -0.32218449       0.63002472
Al      11.07500000      23.22500000      13.10000000      -0.01531147       0.62571890      -0.24969683
Al      13.10000000       5.00000000       5.00000000       0.00047608      -0.20512707      -0.16714354
Al      13.10000000       7.02500000       7.02500000      -0.00003583       0.00371546       0.55683312
Al      15.12500000       5.00000000       7.02500000       0.01321543      -0.63084629       0.26099456
Al      15.12500000       7.02500000       5.00000000       0.00066004       0.32170353      -0.62981394
Al      13.09795339       4.78861888       9.03328710       0.00032528      -0.00284762      -0.00330320
Al      13.09798988       6.95704399      11.04915050       0.00136284      -0.01057369       0.05553015
Al      15.12694847       4.78881647      11.09215023       0.00233577      -0.00406840      -0.00221686
Al      15.12797692       6.95572751       9.07543441       0.00127502      -0.01054570      -0.06286434
Al      13.10000000       5.00000000      13.10000000      -0.01206041      -0.63010976      -0.26403612
Al      13.10000000       7.02500000      15.12500000       0.00039959       0.32134615       0.63154671
Al      15.12500000       5.00000000      15.12500000       0.00084111      -0.20698588       0.16814114
Al      15.12500000       7.02500000      13.10000000       0.00178032       0.00667469      -0.55938343
Al      13.10000000       9.05000000       5.00000000      -0.00073623      -0.05387386      -0.68867915
Al      13.10000000      11.07500000       7.02500000      -0.00715828       0.05496198       0.44641183
Al      15.12500000       9.05000000       7.02500000       0.00145143      -0.12500828       0.43793748
Al      15.12500000      11.07500000       5.00000000       0.00114515      -0.01632141      -0.68857690
Al      13.09959256       9.02129721       9.05477896       0.00261628       0.00477989      -0.07257369
Al      13.10014423      11.04658546      11.07266139       0.00199220       0.00530608       0.06398902
Al      15.12803280       9.01966925      11.06807283      -0.00071542       0.00599464       0.06213075
Al      15.11298713      11.08324864       9.06508903      -0.00192181       0.00917323      -0.06948849
Al      13.10000000       9.05000000      13.10000000       0.00042202      -0.19084003      -0.38132446
Al      13.10000000      11.07500000      15.12500000      -0.00018326      -0.01687312       0.68450684
Al      15.12500000       9.05000000      15.12500000       0.00145100      -0.05341696       0.68841279
Al      15.12500000      11.07500000      13.10000000      -0.00933262       0.00177235      -0.39546867
Al      13.10000000      13.10000000       5.00000000      -0.00108301       0.00264444      -0.68759101
Al      13.10000000      15.12500000       7.02500000      -0.00998120       0.00998120       0.11611599
Al      15.12500000      13.10000000       7.02500000      -0.04144167       0.04144167       0.38645142
Al      15.12500000      15.12500000       5.00000000      -0.00264444       0.00108301      -0.68759101
Al      13.09786659      13.14075919       9.08988012       0.00000043       0.04773321      -0.05633493
Al      15.05039538      13.17460462      11.08727438       0.00617678      -0.00617678       0.07786529
Al      15.08424081      15.12713341       9.08988012      -0.04773321      -0.00000043      -0.05633493
Al      13.10000000      13.10000000      13.10000000      -0.01532987       0.38616097      -0.50331719
Al      13.10000000      15.12500000      15.12500000      -0.00043960       0.00043960       0.84526473
Al      15.12500000      13.10000000      15.12500000       0.01123434      -0.01123434       0.70539202
Al      15.12500000      15.12500000      13.10000000      -0.38616097       0.01532987      -0.50331719
Al      13.10000000      17.15000000       5.00000000      -0.00181729       0.01425147      -0.68797932
Al      13.10000000      19.17500000       7.02500000      -0.00365645       0.06082693       0.49848726
Al      15.12500000      17.15000000       7.02500000      -0.04211663      -0.00189802       0.39681485
Al      15.12500000      19.17500000       5.00000000       0.00010532       0.05353678      -0.69128211
Al      13.09878694      17.11899021       9.08862478       0.00269480      -0.04670458      -0.05206589
Al      13.09935571      19.22133291      11.07137865       0.00051847      -0.00938993       0.06193256
Al      15.05067416      17.08496717      11.08663614       0.00322881       0.00629150       0.07377878
Al      15.11365886      19.18559901       9.06511500      -0.00308501      -0.01404310      -0.06772510
Al      13.10000000      17.15000000      13.10000000      -0.01023831      -0.35551788      -0.52109299
Al      13.10000000      19.17500000      15.12500000      -0.00135177       0.05395205       0.68793483
Al      15.12500000      17.15000000      15.12500000       0.01091384       0.02633616       0.70721932
Al      15.12500000      19.17500000      13.10000000      -0.01656513       0.11177267      -0.45338574
Al      13.10000000      21.20000000       5.00000000      -0.00142256      -0.32153828      -0.63007486
Al      13.10000000      23.22500000       7.02500000      -0.01439901       0.63605650       0.25473824
Al      15.12500000      21.20000000       7.02500000      -0.00224338      -0.04270838       0.59033288
Al      15.12500000      23.22500000       5.00000000      -0.00109694       0.20498193      -0.16670318
Al      13.09762917      21.27099468       9.07372127       0.00012568       0.01017769      -0.06389881
Al      13.09771000      23.43671860      11.09137270      -0.00076255       0.00298903      -0.00205993
Al      15.12935762      21.27253812      11.04804768      -0.00220844       0.00964863       0.05587189
Al      15.12766612      23.43890150       9.03225858       0.00036707       0.00247029      -0.00291591
Al      13.10000000      21.20000000      13.10000000      -0.00171945       0.02356981      -0.53701514
Al      13.10000000      23.22500000      15.12500000      -0.00027800       0.20699136       0.16857020
Al      15.12500000      21.20000000      15.12500000      -0.00048048      -0.32123147       0.63169362
Al      15.12500000      23.22500000      13.10000000       0.01134875       0.63508031      -0.26189006
Al      17.15000000       5.00000000       5.00000000       0.01393278      -0.20201757      -0.16691127
Al      17.15000000       7.02500000       7.02500000       0.00560127       0.03590563       0.56075858
Al      19.17500000       5.00000000       7.02500000       0.03617130      -0.59108267       0.24556730
Al      19.17500000       7.02500000       5.00000000       0.05102338       0.32348572      -0.62678591
Al      17.15931682       4.79379457       9.03541263       0.00329649      -0.00302078      -0.00394767
Al      17.15493810       6.96323027      11.05054034       0.00154457      -0.01209193       0.05713276
Al      19.18319410       4.81453599      11.09673692      -0.00091536      -0.00437758       0.00582458
Al      19.16973202       6.99058021       9.07212942      -0.00222023      -0.01282486      -0.06895911
Al      17.15000000       5.00000000      13.10000000       0.01600080      -0.62229039      -0.25099286
Al      17.15000000       7.02500000      15.12500000       0.01649349       0.32189949       0.62970438
Al      19.17500000       5.00000000      15.12500000       0.04556595      -0.19521770       0.16464357
Al      19.17500000       7.02500000      13.10000000       0.06346463       0.07411114      -0.56899390
Al      17.15000000       9.05000000       5.00000000       0.01708973      -0.05364464      -0.68857033
Al      17.15000000      11.07500000       7.02500000       0.00386746      -0.00386746       0.40142160
Al      19.17500000       9.05000000       7.02500000       0.10122477      -0.10122477       0.45723815
Al      19.17500000      11.07500000       5.00000000       0.05364464      -0.01708973      -0.68857033
Al      17.14470791       9.03951478       9.05889225       0.00064059       0.00447949      -0.07228633
Al      17.12867054      11.09632946      11.06995887       0.00039604      -0.00039604       0.06792945
Al      19.16959221       9.05540779      11.06867994      -0.00188345       0.00188345       0.06768127
Al      19.18548522      11.08029209       9.05889225      -0.00447949      -0.00064059      -0.07228633
Al      17.15000000       9.05000000      13.10000000       0.01292907      -0.11776216      -0.42828967
Al      17.15000000      11.07500000      15.12500000       0.01723841      -0.01723841       0.68809981
Al      19.17500000       9.05000000      15.12500000       0.05311015      -0.05311015       0.68887197
Al      19.17500000      11.07500000      13.10000000       0.11776216      -0.01292907      -0.42828967
Al      17.15000000      13.10000000       5.00000000       0.01632141      -0.00114515      -0.68857690
Al      17.15000000      15.12500000       7.02500000      -0.05496198       0.00715828       0.44641183
Al      19.17500000      13.10000000       7.02500000       0.12500828      -0.00145143       0.43793748
Al      19.17500000      15.12500000       5.00000000       0.05387386       0.00073623      -0.68867915
Al      17.14175136      13.11201287       9.06508903      -0.00917323       0.00192181      -0.06948849
Al      17.17841454      15.12485577      11.07266139      -0.00530608      -0.00199220       0.06398902
Al      19.20533075      13.09696720      11.06807283      -0.00599464       0.00071542       0.06213075
Al      19.20370279      15.12540744       9.05477896      -0.00477989      -0.00261628      -0.07257369
Al      17.15000000      13.10000000      13.10000000      -0.00177235       0.00933262      -0.39546867
Al      17.15000000      15.12500000      15.12500000       0.01687312       0.00018326       0.68450684
Al      19.17500000      13.10000000      15.12500000       0.05341696      -0.00145100       0.68841279
Al      19.17500000      15.12500000      13.10000000       0.19084003      -0.00042202      -0.38132446
Al      17.15000000      17.15000000       5.00000000       0.01604267       0.01702465      -0.68941445
Al      17.15000000      19.17500000       7.02500000      -0.01366817       0.11061947       0.44643993
Al      19.17500000      17.15000000       7.02500000       0.11052409       0.01817849       0.43767962
Al      19.17500000      19.17500000       5.00000000       0.05184120       0.05223126      -0.68905776
Al      17.13755349      17.14211623       9.06642695      -0.01205713      -0.00299540      -0.07212592
Al      17.12622794      19.16899432      11.06958743      -0.00155941      -0.00233992       0.06859689
Al      19.19724642      17.15287161      11.06753021      -0.00508915      -0.00265927       0.06713988
Al      19.17161168      19.17332065       9.05860892      -0.00590703      -0.00283796      -0.07571963
Al      17.15000000      17.15000000      13.10000000      -0.01037250       0.02085543      -0.40778371
Al      17.15000000      19.17500000      15.12500000       0.01617004       0.05292623       0.69145892
Al      19.17500000      17.15000000      15.12500000       0.05300275       0.01543982       0.68892687
Al      19.17500000      19.17500000      13.10000000       0.08742682       0.10511303      -0.46368212
Al      17.15000000      21.20000000       5.00000000       0.01468056      -0.32251347      -0.63017609
Al      17.15000000      23.22500000       7.02500000       0.01517597       0.60917167       0.25845074
Al      19.17500000      21.20000000       7.02500000       0.05643216      -0.07793545       0.56969945
Al      19.17500000      23.22500000       5.00000000       0.04385701       0.19368002      -0.16575293
Al      17.14858819      21.25366425       9.07529392      -0.00077131       0.01044445      -0.06490516
Al      17.15979318      23.43139237      11.08935613       0.00036895       0.00475032      -0.00125390
Al      19.16352572      21.22823515      11.05398624      -0.00501166       0.01372937       0.06325849
Al      19.18137954      23.40429363       9.02932218      -0.00305223       0.00485663      -0.01149959
Al      17.15000000      21.20000000      13.10000000      -0.00352196      -0.04971472      -0.57104694
Al      17.15000000      23.22500000      15.12500000       0.01326959       0.20451759       0.16908548
Al      19.17500000      21.20000000      15.12500000       0.05079575      -0.32267733       0.63021768
Al      19.17500000      23.22500000      13.10000000       0.03479974       0.58863065      -0.25040369
Al      21.20000000       5.00000000       5.00000000      -0.45213609      -0.08817938      -0.07575524
Al      21.20000000       7.02500000       7.02500000      -0.15206063       0.15206063       0.67492007
Al      23.22500000       5.00000000       7.02500000       0.04238130      -0.04238130       0.53051904
Al      23.22500000       7.02500000       5.00000000       0.08817938       0.45213609      -0.07575524
Al      21.17837443       4.87829362       9.04753435       0.00529120      -0.00800661      -0.01186463
Al      21.19688452       7.02811548      11.04043570       0.01343957      -0.01343957       0.05825714
Al      23.24720583       4.97779417      11.07607034       0.01415522      -0.01415522      -0.02836978
Al      23.34670638       7.04662557       9.04753435       0.00800661      -0.00529120      -0.01186463
Al      21.20000000       5.00000000      13.10000000      -0.24608762      -0.48601201      -0.37980767
Al      21.20000000       7.02500000      15.12500000      -0.31996041       0.31996041       0.57229101
Al      23.22500000       5.00000000      15.12500000      -0.33103534       0.33103534      -0.33998522
Al      23.22500000       7.02500000      13.10000000       0.48601201       0.24608762      -0.37980767
Al      21.20000000       9.05000000       5.00000000      -0.32348572      -0.05102338      -0.62678591
Al      21.20000000      11.07500000       7.02500000      -0.03590563      -0.00560127       0.56075858
Al      23.22500000       9.05000000       7.02500000       0.59108267      -0.03617130       0.24556730
Al      23.22500000      11.07500000       5.00000000       0.20201757      -0.01393278      -0.16691127
Al      21.23441979       9.05526798       9.07212942       0.01282486       0.00222023      -0.06895911
Al      21.26176973      11.07006190      11.05054034       0.01209193      -0.00154457       0.05713276
Al      23.41046401       9.04180590      11.09673692       0.00437758       0.00091536       0.00582458
Al      23.43120543      11.06568318       9.03541263       0.00302078      -0.00329649      -0.00394767
Al      21.20000000       9.05000000      13.10000000      -0.07411114      -0.06346463      -0.56899390
Al      21.20000000      11.07500000      15.12500000      -0.32189949      -0.01649349       0.62970438
Al      23.22500000       9.05000000      15.12500000       0.19521770      -0.04556595       0.16464357
Al      23.22500000      11.07500000      13.10000000       0.62229039      -0.01600080      -0.25099286
Al      21.20000000      13.10000000       5.00000000      -0.32170353      -0.00066004      -0.62981394
Al      21.20000000      15.12500000       7.02500000      -0.00371546       0.00003583       0.55683312
Al      23.22500000      13.10000000       7.02500000       0.63084629      -0.01321543       0.26099456
Al      23.22500000      15.12500000       5.00000000       0.20512707      -0.00047608      -0.16714354
Al      21.26927249      13.09702308       9.07543441       0.01054570      -0.00127502      -0.06286434
Al      21.26795601      15.12701012      11.04915050       0.01057369      -0.00136284       0.05553015
Al      23.43618353      13.09805153      11.09215023       0.00406840      -0.00233577      -0.00221686
Al      23.43638112      15.12704661       9.03328710       0.00284762      -0.00032528      -0.00330320
Al      21.20000000      13.10000000      13.10000000      -0.00667469      -0.00178032      -0.55938343
Al      21.20000000      15.12500000      15.12500000      -0.32134615      -0.00039959       0.63154671
Al      23.22500000      13.10000000      15.12500000       0.20698588      -0.00084111       0.16814114
Al      23.22500000      15.12500000      13.10000000       0.63010976       0.01206041      -0.26403612
Al      21.20000000      17.15000000       5.00000000      -0.32275031       0.01486544      -0.62909148
Al      21.20000000      19.17500000       7.02500000      -0.07488047       0.06367628       0.56836178
Al      23.22500000      17.15000000       7.02500000       0.62212093       0.01365136       0.24803856
Al      23.22500000      19.17500000       5.00000000       0.19432605       0.04410208      -0.16475032
Al      21.26205019      17.15522015       9.07407913       0.01254362      -0.00146237      -0.06634230
Al      21.23915427      19.17329366      11.05323125       0.01282481      -0.00481165       0.06305056
Al      23.43018046      17.15905117      11.08986639       0.00568678       0.00100481      -0.00078355
Al      23.41197951      19.18324994       9.02824213       0.00526693      -0.00282038      -0.01129060
Al      21.20000000      17.15000000      13.10000000      -0.01982227       0.00434115      -0.54781564