299
Lattice="28.224999999999998 0.0 0.0 0.0 28.224999999999998 0.0 0.0 0.0 20.125" Properties=species:S:1:pos:R:3:forces:R:3 energy=-16469.30846159313 pbc="T T T"
Al       5.00000000       5.00000000       5.00000000       0.33529172       0.33508232       0.34600092
Al       5.00000000       7.02500000       7.02500000      -0.47805543       0.24634964       0.36540634
Al       7.02500000       5.00000000       7.02500000       0.24411371      -0.47875830       0.36016131
Al       7.02500000       7.02500000       5.00000000       0.31164260       0.31160460      -0.54597862
Al       4.97791084       4.97748667       9.04943017      -0.00629163      -0.00506886       0.06732901
Al       4.88354664       7.04839926      11.07905200      -0.00888494      -0.00523698      -0.03276929
Al       7.04702960       4.87431896      11.07968478      -0.00842379      -0.00818477      -0.03324122
Al       7.02897317       7.02703964       9.08201064      -0.01506595      -0.01075518      -0.01271609
Al       5.00000000       5.00000000      13.10000000      -0.04520067      -0.04164242      -0.51938291
Al       5.00000000       7.02500000      15.12500000      -0.08941528       0.44856874       0.06136541
Al       7.02500000       5.00000000      15.12500000       0.44861715      -0.09008859       0.06023797
Al       7.02500000       7.02500000      13.10000000       0.14957024       0.15022540      -0.65443829
Al       5.00000000       9.05000000       5.00000000      -0.19850602      -0.04786304      -0.14733292
Al       5.00000000      11.07500000       7.02500000      -0.60372999      -0.01706715       0.23828521
Al       7.02500000       9.05000000       7.02500000       0.07109305      -0.06177186       0.54847881
Al       7.02500000      11.07500000       5.00000000       0.30726405      -0.01947971      -0.60156796
Al       4.82154262       9.04393150       9.02725041      -0.00648654      -0.00200465       0.03586574
Al       4.79461958      11.06480265      11.09055198      -0.00747618      -0.00189565      -0.03827821
Al       6.99795649       9.06198705      11.05754510      -0.01696529      -0.00185175       0.01421701
Al       6.97251423      11.07619531       9.07153718      -0.01627931      -0.00338538      -0.01065223
Al       5.00000000       9.05000000      13.10000000      -0.57819199      -0.03550751      -0.22744887
Al       5.00000000      11.07500000      15.12500000      -0.20721548      -0.01571213       0.14930584
Al       7.02500000       9.05000000      15.12500000       0.31199409      -0.05574279       0.59976755
Al       7.02500000      11.07500000      13.10000000       0.04194753       0.00063553      -0.54759034
Al       5.00000000      13.10000000       5.00000000      -0.21270778      -0.00057985      -0.14886302
Al       5.00000000      15.12500000       7.02500000      -0.63344069       0.01376267       0.23775700
Al       7.02500000      13.10000000       7.02500000       0.03017103      -0.00145504       0.57166027
Al       7.02500000      15.12500000       5.00000000       0.30436300       0.00235611      -0.60364429
Al       4.78702981      13.09691476       9.03103006      -0.00859752      -0.00144465       0.03889104
Al       4.78918013      15.12754448      11.09196023      -0.00789308      -0.00086353      -0.03555998
Al       6.95364265      13.09540385      11.05095580      -0.01820855      -0.00166032       0.01522339
Al       6.95502878      15.12726850       9.07029193      -0.01967939       0.00030417      -0.01245383
Al       5.00000000      13.10000000      13.10000000      -0.62736020      -0.01216235      -0.24454490
Al       5.00000000      15.12500000      15.12500000      -0.21053105       0.00108489       0.14968109
Al       7.02500000      13.10000000      15.12500000       0.30829235      -0.00093815       0.60261033
Al       7.02500000      15.12500000      13.10000000      -0.03337999       0.00204906      -0.51479740
Al       5.00000000      17.15000000       5.00000000      -0.20841243       0.01624931      -0.14838448
Al       5.00000000      19.17500000       7.02500000      -0.57936895       0.03694370       0.22008257
Al       7.02500000      17.15000000       7.02500000       0.04351591       0.00830494       0.55482504
Al       7.02500000      19.17500000       5.00000000       0.31044125       0.05697215      -0.59942822
Al       4.79312776      17.16065642       9.03269039      -0.00878724       0.00052672       0.03956136
Al       4.81357619      19.18382060      11.09792552      -0.00681211       0.00064044      -0.03358539
Al       6.96028471      17.15697906      11.05269939      -0.01443222       0.00018451       0.01578530
Al       6.99500552      19.16676983       9.06861023      -0.01357062       0.00134824      -0.01353989
Al       5.00000000      17.15000000      13.10000000      -0.61784786       0.01504965      -0.22695471
Al       5.00000000      19.17500000      15.12500000      -0.19773098       0.04730918       0.14710877
Al       7.02500000      17.15000000      15.12500000       0.31012699       0.01814046       0.60052869
Al       7.02500000      19.17500000      13.10000000       0.08237780       0.06028113      -0.55469317
Al       5.00000000      21.20000000       5.00000000      -0.08966930      -0.44835123      -0.06052221
Al       5.00000000      23.22500000       7.02500000      -0.04307597       0.04307597       0.51981135
Al       7.02500000      21.20000000       7.02500000       0.15434209      -0.15434209       0.64892438
Al       7.02500000      23.22500000       5.00000000       0.44835123       0.08966930      -0.06052221
Al       4.88185640      21.17627759       9.04507923      -0.00873117       0.00594943       0.03323528
Al       4.98135930      23.24364070      11.07394385      -0.00607673       0.00607673      -0.06502510
Al       7.03420844      21.19079156      11.04397236      -0.01230253       0.01230253       0.01576322
Al       7.04872241      23.34314360       9.04507923      -0.00594943       0.00873117       0.03323528
Al       5.00000000      21.20000000      13.10000000      -0.47144809      -0.24551680      -0.36196626
Al       5.00000000      23.22500000      15.12500000       0.33610705      -0.33610705      -0.34460482
Al       7.02500000      21.20000000      15.12500000       0.31265511      -0.31265511       0.54728120
Al       7.02500000      23.22500000      13.10000000       0.24551680       0.47144809      -0.36196626
Al       9.05000000       5.00000000       5.00000000      -0.04773982      -0.19902169      -0.14635745
Al       9.05000000       7.02500000       7.02500000      -0.06742187       0.06682502       0.54544611
Al      11.07500000       5.00000000       7.02500000      -0.01440459      -0.61674211       0.22461993
Al      11.07500000       7.02500000       5.00000000      -0.01888306       0.30750229      -0.60022503
Al       9.04276254       4.81370559       9.02615906      -0.00486436      -0.00762787       0.03511932
Al       9.05310204       6.98645405      11.05681762      -0.00743414      -0.01343655       0.01440717
Al      11.06598294       4.79593605      11.09118000      -0.00362995      -0.01077982      -0.03757069
Al      11.07029797       6.96379231       9.07027692      -0.00606552      -0.01713141      -0.01476829
Al       9.05000000       5.00000000      13.10000000      -0.03527156      -0.59093181      -0.21412372
Al       9.05000000       7.02500000      15.12500000      -0.05563861       0.31200036       0.59893231
Al      11.07500000       5.00000000      15.12500000      -0.01596012      -0.20717311       0.14933782
Al      11.07500000       7.02500000      13.10000000      -0.00709268       0.01092790      -0.52074894
Al       9.05000000       9.05000000       5.00000000      -0.06109645      -0.06122383      -0.65889511
Al       9.05000000      11.07500000       7.02500000      -0.12271345       0.00529979       0.42275946
Al      11.07500000       9.05000000       7.02500000      -0.02431639      -0.12375900       0.41158466
Al      11.07500000      11.07500000       5.00000000      -0.02572084      -0.02611832      -0.66375244
Al       9.05302783       9.05385012       9.05462075      -0.01134790      -0.00370231      -0.01593948
Al       9.05756157      11.09881488      11.07330296      -0.01708769      -0.00657140       0.01727991
Al      11.07303137       9.02846046      11.07127365      -0.01134019      -0.00847564       0.01723490
Al      11.08396065      11.08772757       9.06231656      -0.01379190      -0.00265460      -0.01372386
Al       9.05000000       9.05000000      13.10000000      -0.11148579      -0.09431760      -0.43733762
Al       9.05000000      11.07500000      15.12500000      -0.06238650      -0.02080117       0.66098688
Al      11.07500000       9.05000000      15.12500000      -0.02095892      -0.06221687       0.65874013
Al      11.07500000      11.07500000      13.10000000      -0.02958099      -0.00001628      -0.37354106
Al       9.05000000      13.10000000       5.00000000      -0.06760009      -0.00398289      -0.66544436
Al       9.05000000      15.12500000       7.02500000      -0.07380383       0.00439495       0.47624187
Al      11.07500000      13.10000000       7.02500000      -0.00824912       0.03717128       0.36862739
Al      11.07500000      15.12500000       5.00000000      -0.02462114       0.00424795      -0.66659646
Al       9.04120147      13.11127588       9.06130070      -0.01267697      -0.00327198      -0.01155783
Al       9.00508048      15.12519244      11.07472336      -0.01471499       0.00469022       0.01712750
Al      11.14077275      13.17412709      11.09045319      -0.01681737      -0.00414179       0.02093831
Al      11.10784844      15.12547603       9.08531649       0.01352432       0.00705827       0.00101362
Al       9.05000000      13.10000000      13.10000000      -0.12629295       0.01284919      -0.42339433
Al       9.05000000      15.12500000      15.12500000      -0.06461826       0.00313182       0.65976636
Al      11.07500000      13.10000000      15.12500000      -0.03597859      -0.01449750       0.68360820
Al      11.07500000      15.12500000      13.10000000       0.34610637       0.01242350      -0.48579789
Al       9.05000000      17.15000000       5.00000000      -0.06595873       0.02372811      -0.66363239
Al       9.05000000      19.17500000       7.02500000      -0.09016425       0.09016425       0.45317946
Al      11.07500000      17.15000000       7.02500000       0.00106403      -0.00106403       0.37707842
Al      11.07500000      19.17500000       5.00000000      -0.02372811       0.06595873      -0.66363239
Al       9.04837435      17.13923549       9.06166733      -0.00501833       0.00411850      -0.01134965
Al       9.07076292      19.15423708      11.07330408      -0.00567888       0.00567888       0.02152319
Al      11.14545854      17.07954146      11.08923197      -0.01422047       0.01422047       0.02138631
Al      11.08576451      19.17662565       9.06166733      -0.00411850       0.00501833      -0.01134965
Al       9.05000000      17.15000000      13.10000000      -0.11048253       0.00791196      -0.42493131
Al       9.05000000      19.17500000      15.12500000      -0.05898003       0.05898003       0.65999074
Al      11.07500000      17.15000000      15.12500000      -0.03505187       0.03505187       0.68221226
Al      11.07500000      19.17500000      13.10000000      -0.00791196       0.11048253      -0.42493131
Al       9.05000000      21.20000000       5.00000000      -0.05697215      -0.31044125      -0.59942822
Al       9.05000000      23.22500000       7.02500000      -0.03694370       0.57936895       0.22008257
Al      11.07500000      21.20000000       7.02500000      -0.00830494      -0.04351591       0.55482504
Al      11.07500000      23.22500000       5.00000000      -0.01624931       0.20841243      -0.14838448
Al       9.05823017      21.22999448       9.06861023      -0.00134824       0.01357062      -0.01353989
Al       9.04117940      23.41142381      11.09792552      -0.00064044       0.00681211      -0.03358539
Al      11.06802094      21.26471529      11.05269939      -0.00018451       0.01443222       0.01578530
Al      11.06434358      23.43187224       9.03269039      -0.00052672       0.00878724       0.03956136
Al       9.05000000      21.20000000      13.10000000      -0.06028113      -0.08237780      -0.55469317
Al       9.05000000      23.22500000      15.12500000      -0.04730918       0.19773098       0.14710877
Al      11.07500000      21.20000000      15.12500000      -0.01814046      -0.31012699       0.60052869
Al      11.07500000      23.22500000      13.10000000      -0.01504965       0.61784786      -0.22695471
Al      13.10000000       5.00000000       5.00000000      -0.00088704      -0.21215083      -0.14896298
Al      13.10000000       7.02500000       7.02500000      -0.00210632      -0.00887771       0.53356887
Al      15.12500000       5.00000000       7.02500000       0.01150954      -0.62609278       0.24211557
Al      15.12500000       7.02500000       5.00000000       0.00189493       0.30562551      -0.60211475
Al      13.09741595       4.78981616       9.03199541       0.00094592      -0.01106862       0.03641118
Al      13.09791846       6.95830934      11.05215450      -0.00195030      -0.02103271       0.01558684
Al      15.12650206       4.79004288      11.09281897       0.00411153      -0.01116231      -0.03664435
Al      15.12728056       6.95714131       9.07204963       0.00714915      -0.02232480      -0.01700367
Al      13.10000000       5.00000000      13.10000000      -0.01363199      -0.62279510      -0.24380352
Al      13.10000000       7.02500000      15.12500000      -0.00182730       0.30779595       0.60320547
Al      15.12500000       5.00000000      15.12500000       0.00092220      -0.21104430       0.14987142
Al      15.12500000       7.02500000      13.10000000       0.00072512      -0.00331315      -0.53494601
Al      13.10000000       9.05000000       5.00000000      -0.00297394      -0.06765092      -0.66161222
Al      13.10000000      11.07500000       7.02500000      -0.01058587       0.04330124       0.41660119
Al      15.12500000       9.05000000       7.02500000       0.00391336      -0.13965272       0.40998998
Al      15.12500000      11.07500000       5.00000000       0.00523380      -0.02749632      -0.66521301
Al      13.09991522       9.02244275       9.05085448      -0.00531651      -0.01614749      -0.01920487
Al      13.10068132      11.04676387      11.07622893      -0.00911109      -0.00745023       0.01872261
Al      15.12740904       9.02110228      11.07150424       0.00694322      -0.01581929       0.01800829
Al      15.11256296      11.08378718       9.06124425       0.00559302      -0.00603786      -0.01754147
Al      13.10000000       9.05000000      13.10000000      -0.00295722      -0.20368327      -0.34916474
Al      13.10000000      11.07500000      15.12500000      -0.00360385      -0.02468209       0.65945661
Al      15.12500000       9.05000000      15.12500000       0.00226298      -0.06375331       0.66073592
Al      15.12500000      11.07500000      13.10000000      -0.00641845      -0.01019305      -0.35732651
Al      13.10000000      13.10000000       5.00000000      -0.00443225      -0.00291411      -0.66857960
Al      13.10000000      15.12500000       7.02500000      -0.01413196       0.01413196       0.08224137
Al      15.12500000      13.10000000       7.02500000      -0.03595828       0.03595828       0.35515326
Al      15.12500000      15.12500000       5.00000000       0.00291411       0.00443225      -0.66857960
Al      13.09842782      13.14162941       9.08646680      -0.00977308       0.02374842      -0.00353569
Al      15.05050677      13.17449323      11.09118810       0.00506630      -0.00506630       0.02482580
Al      15.08337059      15.12657218       9.08646680      -0.02374842       0.00977308      -0.00353569
Al      13.10000000      13.10000000      13.10000000      -0.02052538       0.38363976      -0.46653368
Al      13.10000000      15.12500000      15.12500000      -0.00400715       0.00400715       0.82800267
Al      15.12500000      13.10000000      15.12500000       0.01495084      -0.01495084       0.68511629
Al      15.12500000      15.12500000      13.10000000      -0.38363976       0.02052538      -0.46653368
Al      13.10000000      17.15000000       5.00000000      -0.00424795       0.02462114      -0.66659646
Al      13.10000000      19.17500000       7.02500000      -0.00439495       0.07380383       0.47624187
Al      15.12500000      17.15000000       7.02500000      -0.03717128       0.00824912       0.36862739
Al      15.12500000      19.17500000       5.00000000       0.00398289       0.06760009      -0.66544436
Al      13.09952397      17.11715156       9.08531649      -0.00705827      -0.01352432       0.00101362
Al      13.09980756      19.21991952      11.07472336      -0.00469022       0.01471499       0.01712750
Al      15.05087291      17.08422725      11.09045319       0.00414179       0.01681737       0.02093831
Al      15.11372412      19.18379853       9.06130070       0.00327198       0.01267697      -0.01155783
Al      13.10000000      17.15000000      13.10000000      -0.01242350      -0.34610637      -0.48579789
Al      13.10000000      19.17500000      15.12500000      -0.00313182       0.06461826       0.65976636
Al      15.12500000      17.15000000      15.12500000       0.01449750       0.03597859       0.68360820
Al      15.12500000      19.17500000      13.10000000      -0.01284919       0.12629295      -0.42339433
Al      13.10000000      21.20000000       5.00000000      -0.00235611      -0.30436300      -0.60364429
Al      13.10000000      23.22500000       7.02500000      -0.01376267       0.63344069       0.23775700
Al      15.12500000      21.20000000       7.02500000       0.00145504      -0.03017103       0.57166027
Al      15.12500000      23.22500000       5.00000000       0.00057985       0.21270778      -0.14886302
Al      13.09773150      21.26997122       9.07029193      -0.00030417       0.01967939      -0.01245383
Al      13.09745552      23.43581987      11.09196023       0.00086353       0.00789308      -0.03555998
Al      15.12959615      21.27135735      11.05095580       0.00166032       0.01820855       0.01522339
Al      15.12808524      23.43797019       9.03103006       0.00144465       0.00859752       0.03889104
Al      13.10000000      21.20000000      13.10000000      -0.00204906       0.03337999      -0.51479740
Al      13.10000000      23.22500000      15.12500000      -0.00108489       0.21053105       0.14968109
Al      15.12500000      21.20000000      15.12500000       0.00093815      -0.30829235       0.60261033
Al      15.12500000      23.22500000      13.10000000       0.01216235       0.62736020      -0.24454490
Al      17.15000000       5.00000000       5.00000000       0.01613057      -0.20837666      -0.14834763
Al      17.15000000       7.02500000       7.02500000       0.00654025       0.02616475       0.53885065
Al      19.17500000       5.00000000       7.02500000       0.03569346      -0.58436313       0.22402672
Al      19.17500000       7.02500000       5.00000000       0.05650913       0.31075799      -0.59824523
Al      17.15855891       4.79463931       9.03359711       0.00775664      -0.00766157       0.03832178
Al      17.15382844       6.96438839      11.05377007       0.01029256      -0.01870330       0.01175500
Al      19.18179799       4.81506094      11.09825558       0.00693615      -0.00506460      -0.03650869
Al      19.16817627       6.99155851       9.06840749       0.00968711      -0.01614767      -0.01563766
Al      17.15000000       5.00000000      13.10000000       0.01301559      -0.61464801      -0.22889097
Al      17.15000000       7.02500000      15.12500000       0.01859823       0.30914679       0.60125295
Al      19.17500000       5.00000000      15.12500000       0.04759256      -0.19812299       0.14697533
Al      19.17500000       7.02500000      13.10000000       0.06451176       0.06874346      -0.54762968
Al      17.15000000       9.05000000       5.00000000       0.02271748      -0.06480792      -0.65970716
Al      17.15000000      11.07500000       7.02500000       0.01327384      -0.01327384       0.37193389
Al      19.17500000       9.05000000       7.02500000       0.10757935      -0.10757935       0.43572761
Al      19.17500000      11.07500000       5.00000000       0.06480792      -0.02271748      -0.65970716
Al      17.14357496       9.04101615       9.05501365       0.01406819      -0.01472554      -0.01768820
Al      17.12778328      11.09721672      11.07367806       0.01434039      -0.01434039       0.01900952
Al      19.16808073       9.05691927      11.07215169       0.01272601      -0.01272601       0.01513505
Al      19.18398385      11.08142504       9.05501365       0.01472554      -0.01406819      -0.01768820
Al      17.15000000       9.05000000      13.10000000       0.01571448      -0.12715742      -0.40018053
Al      17.15000000      11.07500000      15.12500000       0.02303415      -0.02303415       0.66114827
Al      19.17500000       9.05000000      15.12500000       0.05969747      -0.05969747       0.65942307
Al      19.17500000      11.07500000      13.10000000       0.12715742      -0.01571448      -0.40018053
Al      17.15000000      13.10000000       5.00000000       0.02749632      -0.00523380      -0.66521301
Al      17.15000000      15.12500000       7.02500000      -0.04330124       0.01058587       0.41660119
Al      19.17500000      13.10000000       7.02500000       0.13965272      -0.00391336       0.40998998
Al      19.17500000      15.12500000       5.00000000       0.06765092       0.00297394      -0.66161222
Al      17.14121282      13.11243704       9.06124425       0.00603786      -0.00559302      -0.01754147
Al      17.17823613      15.12431868      11.07622893       0.00745023       0.00911109       0.01872261
Al      19.20389772      13.09759096      11.07150424       0.01581929      -0.00694322       0.01800829
Al      19.20255725      15.12508478       9.05085448       0.01614749       0.00531651      -0.01920487
Al      17.15000000      13.10000000      13.10000000       0.01019305       0.00641845      -0.35732651
Al      17.15000000      15.12500000      15.12500000       0.02468209       0.00360385       0.65945661
Al      19.17500000      13.10000000      15.12500000       0.06375331      -0.00226298       0.66073592
Al      19.17500000      15.12500000      13.10000000       0.20368327       0.00295722      -0.34916474
Al      17.15000000      17.15000000       5.00000000       0.02611832       0.02572084      -0.66375244
Al      17.15000000      19.17500000       7.02500000      -0.00529979       0.12271345       0.42275946
Al      19.17500000      17.15000000       7.02500000       0.12375900       0.02431639       0.41158466
Al      19.17500000      19.17500000       5.00000000       0.06122383       0.06109645      -0.65889511
Al      17.13727243      17.14103935       9.06231656       0.00265460       0.01379190      -0.01372386
Al      17.12618512      19.16743843      11.07330296       0.00657140       0.01708769       0.01727991
Al      19.19653954      17.15196863      11.07127365       0.00847564       0.01134019       0.01723490
Al      19.17114988      19.17197217       9.05462075       0.00370231       0.01134790      -0.01593948
Al      17.15000000      17.15000000      13.10000000       0.00001628       0.02958099      -0.37354106
Al      17.15000000      19.17500000      15.12500000       0.02080117       0.06238650       0.66098688
Al      19.17500000      17.15000000      15.12500000       0.06221687       0.02095892       0.65874013
Al      19.17500000      19.17500000      13.10000000       0.09431760       0.11148579      -0.43733762
Al      17.15000000      21.20000000       5.00000000       0.01947971      -0.30726405      -0.60156796
Al      17.15000000      23.22500000       7.02500000       0.01706715       0.60372999       0.23828521
Al      19.17500000      21.20000000       7.02500000       0.06177186      -0.07109305       0.54847881
Al      19.17500000      23.22500000       5.00000000       0.04786304       0.19850602      -0.14733292
Al      17.14880469      21.25248577       9.07153718       0.00338538       0.01627931      -0.01065223
Al      17.16019735      23.43038042      11.09055198       0.00189565       0.00747618      -0.03827821
Al      19.16301295      21.22704351      11.05754510       0.00185175       0.01696529       0.01421701
Al      19.18106850      23.40345738       9.02725041       0.00200465       0.00648654       0.03586574
Al      17.15000000      21.20000000      13.10000000      -0.00063553      -0.04194753      -0.54759034
Al      17.15000000      23.22500000      15.12500000       0.01571213       0.20721548       0.14930584
Al      19.17500000      21.20000000      15.12500000       0.05574279      -0.31199409       0.59976755
Al      19.17500000      23.22500000      13.10000000       0.03550751       0.57819199      -0.22744887
Al      21.20000000       5.00000000       5.00000000      -0.44823050      -0.09034816      -0.06000791
Al      21.20000000       7.02500000       7.02500000      -0.14882655       0.14882655       0.65745206
Al      23.22500000       5.00000000       7.02500000       0.04326152      -0.04326152       0.51941417
Al      23.22500000       7.02500000       5.00000000       0.09034816       0.44823050      -0.06000791
Al      21.17760828       4.87825360       9.04578183       0.00708139      -0.00436184       0.03317799
Al      21.19606928       7.02893072      11.04348901       0.01427326      -0.01427326       0.01028914
Al      23.24731901       4.97768099      11.07588099       0.00349196      -0.00349196      -0.06793746
Al      23.34674640       7.04739172       9.04578183       0.00436184      -0.00708139       0.03317799
Al      21.20000000       5.00000000      13.10000000      -0.24593423      -0.47743842      -0.36327264
Al      21.20000000       7.02500000      15.12500000      -0.31221563       0.31221563       0.54660332
Al      23.22500000       5.00000000      15.12500000      -0.33549106       0.33549106      -0.34606229
Al      23.22500000       7.02500000      13.10000000       0.47743842       0.24593423      -0.36327264
Al      21.20000000       9.05000000       5.00000000      -0.31075799      -0.05650913      -0.59824523
Al      21.20000000      11.07500000       7.02500000      -0.02616475      -0.00654025       0.53885065
Al      23.22500000       9.05000000       7.02500000       0.58436313      -0.03569346       0.22402672
Al      23.22500000      11.07500000       5.00000000       0.20837666      -0.01613057      -0.14834763
Al      21.23344149       9.05682373       9.06840749       0.01614767      -0.00968711      -0.01563766
Al      21.26061161      11.07117156      11.05377007       0.01870330      -0.01029256       0.01175500
Al      23.40993906       9.04320201      11.09825558       0.00506460      -0.00693615      -0.03650869
Al      23.43036069      11.06644109       9.03359711       0.00766157      -0.00775664       0.03832178
Al      21.20000000       9.05000000      13.10000000      -0.06874346      -0.06451176      -0.54762968
Al      21.20000000      11.07500000      15.12500000      -0.30914679      -0.01859823       0.60125295
Al      23.22500000       9.05000000      15.12500000       0.19812299      -0.04759256       0.14697533
Al      23.22500000      11.07500000      13.10000000       0.61464801      -0.01301559      -0.22889097
Al      21.20000000      13.10000000       5.00000000      -0.30562551      -0.00189493      -0.60211475
Al      21.20000000      15.12500000       7.02500000       0.00887771       0.00210632       0.53356887
Al      23.22500000      13.10000000       7.02500000       0.62609278      -0.01150954       0.24211557
Al      23.22500000      15.12500000       5.00000000       0.21215083       0.00088704      -0.14896298
Al      21.26785869      13.09771944       9.07204963       0.02232480      -0.00714915      -0.01700367
Al      21.26669066      15.12708154      11.05215450       0.02103271       0.00195030       0.01558684
Al      23.43495712      13.09849794      11.09281897       0.01116231      -0.00411153      -0.03664435
Al      23.43518384      15.12758405       9.03199541       0.01106862      -0.00094592       0.03641118
Al      21.20000000      13.10000000      13.10000000       0.00331315      -0.00072512      -0.53494601
Al      21.20000000      15.12500000      15.12500000      -0.30779595       0.00182730       0.60320547
Al      23.22500000      13.10000000      15.12500000       0.21104430      -0.00092220       0.14987142
Al      23.22500000      15.12500000      13.10000000       0.62279510       0.01363199      -0.24380352
Al      21.20000000      17.15000000       5.00000000      -0.30750229       0.01888306      -0.60022503
Al      21.20000000      19.17500000       7.02500000      -0.06682502       0.06742187       0.54544611
Al      23.22500000      17.15000000       7.02500000       0.61674211       0.01440459       0.22461993
Al      23.22500000      19.17500000       5.00000000       0.19902169       0.04773982      -0.14635745
Al      21.26120769      17.15470203       9.07027692       0.01713141       0.00606552      -0.01476829
Al      21.23854595      19.17189796      11.05681762       0.01343655       0.00743414       0.01440717
Al      23.42906395      17.15901706      11.09118000       0.01077982       0.00362995      -0.03757069
Al      23.41129441      19.18223746       9.02615906       0.00762787       0.00486436       0.03511932
Al      21.20000000      17.15000000      13.10000000      -0.01092790       0.00709268      -0.52074894