299
Lattice="28.224999999999998 0.0 0.0 0.0 28.224999999999998 0.0 0.0 0.0 20.125" Properties=species:S:1:pos:R:3:forces:R:3 energy=-16469.312289050275 pbc="T T T"
Al       5.00000000       5.00000000       5.00000000       0.32840201       0.32962457       0.33829051
Al       5.00000000       7.02500000       7.02500000      -0.48269428       0.24479150       0.38578728
Al       7.02500000       5.00000000       7.02500000       0.24007213      -0.48218796       0.37930807
Al       7.02500000       7.02500000       5.00000000       0.31740563       0.31974082      -0.56977776
Al       4.97770766       4.97715712       9.05085282      -0.00956618      -0.00535531       0.03694851
Al       4.88336746       7.04840645      11.07756580      -0.00711555       0.00327728       0.00723465
Al       7.04705506       4.87397081      11.07821580      -0.00315699      -0.00472771       0.00771255
Al       7.02920888       7.02723744       9.08223571      -0.00916510      -0.00022930      -0.03627346
Al       5.00000000       5.00000000      13.10000000      -0.04339412      -0.03817080      -0.52861170
Al       5.00000000       7.02500000      15.12500000      -0.09766473       0.45232459       0.07189516
Al       7.02500000       5.00000000      15.12500000       0.45038998      -0.09737390       0.07139262
Al       7.02500000       7.02500000      13.10000000       0.14455094       0.14809726      -0.68547596
Al       5.00000000       9.05000000       5.00000000      -0.20410473      -0.04057220      -0.15981963
Al       5.00000000      11.07500000       7.02500000      -0.60229526      -0.01064659       0.25550215
Al       7.02500000       9.05000000       7.02500000       0.06870949      -0.05267696       0.57275214
Al       7.02500000      11.07500000       5.00000000       0.32048532      -0.01106986      -0.62688452
Al       4.82146115       9.04404776       9.02836906      -0.00382788       0.00266559       0.00034843
Al       4.79444323      11.06455330      11.08916413      -0.00076175       0.00333434      -0.00048281
Al       6.99814363       9.06201107      11.05714887      -0.00893321       0.00472006       0.03416089
Al       6.97298528      11.07599945       9.07170456      -0.00689800       0.00678623      -0.02942273
Al       5.00000000       9.05000000      13.10000000      -0.57912687      -0.03019346      -0.24655639
Al       5.00000000      11.07500000      15.12500000      -0.20879159      -0.01028045       0.16056113
Al       7.02500000       9.05000000      15.12500000       0.32184211      -0.04474682       0.62497627
Al       7.02500000      11.07500000      13.10000000       0.04295140       0.00941375      -0.57217204
Al       5.00000000      13.10000000       5.00000000      -0.21228570       0.00073036      -0.15979121
Al       5.00000000      15.12500000       7.02500000      -0.62862865       0.00953186       0.25587283
Al       7.02500000      13.10000000       7.02500000       0.03460157       0.00279113       0.59711141
Al       7.02500000      15.12500000       5.00000000       0.32055166      -0.00249099      -0.62740016
Al       4.78669850      13.09673096       9.03222407       0.00098269       0.00002430       0.00243569
Al       4.78881081      15.12794145      11.09059146       0.00108326      -0.00733767       0.00182494
Al       6.95444153      13.09520525      11.05026280      -0.00712049       0.00319146       0.03736819
Al       6.95582875      15.12767467       9.07066369      -0.00612356      -0.00840455      -0.03290557
Al       5.00000000      13.10000000      13.10000000      -0.62184574      -0.01051901      -0.26332180
Al       5.00000000      15.12500000      15.12500000      -0.21049101      -0.00304566       0.16069234
Al       7.02500000      13.10000000      15.12500000       0.32248561       0.00116383       0.62538958
Al       7.02500000      15.12500000      13.10000000      -0.02827987      -0.00377877      -0.54089259
Al       5.00000000      17.15000000       5.00000000      -0.21058948       0.00885580      -0.16142342
Al       5.00000000      19.17500000       7.02500000      -0.58193897       0.03077658       0.23727755
Al       7.02500000      17.15000000       7.02500000       0.04768795      -0.00249290       0.57842987
Al       7.02500000      19.17500000       5.00000000       0.32239683       0.04514814      -0.62694413
Al       4.79304274      17.16104833       9.03391343      -0.00427125      -0.00851483       0.00213982
Al       4.81353709      19.18379578      11.09665469      -0.00628272      -0.00579457       0.00408240
Al       6.96066794      17.15736351      11.05235971      -0.00066747      -0.01279413       0.03583798
Al       6.99516280      19.16682082       9.06870595      -0.00037020      -0.00775624      -0.03130556
Al       5.00000000      17.15000000      13.10000000      -0.61658590       0.00724915      -0.24363247
Al       5.00000000      19.17500000      15.12500000      -0.20395591       0.03919655       0.16086824
Al       7.02500000      17.15000000      15.12500000       0.32401853       0.00844832       0.62600197
Al       7.02500000      19.17500000      13.10000000       0.08322411       0.05078208      -0.57865840
Al       5.00000000      21.20000000       5.00000000      -0.09871013      -0.45161552      -0.07334514
Al       5.00000000      23.22500000       7.02500000      -0.04257351       0.04257351       0.52879701
Al       7.02500000      21.20000000       7.02500000       0.15191581      -0.15191581       0.67754915
Al       7.02500000      23.22500000       5.00000000       0.45161552       0.09871013      -0.07334514
Al       4.88179832      21.17622940       9.04640600      -0.01052534      -0.00152345      -0.00689359
Al       4.98125128      23.24374872      11.07233690      -0.01083000       0.01083000      -0.03397474
Al       7.03440277      21.19059723      11.04359284      -0.00109905       0.00109905       0.04216092
Al       7.04877060      23.34320168       9.04640600       0.00152345       0.01052534      -0.00689359
Al       5.00000000      21.20000000      13.10000000      -0.47647691      -0.24396922      -0.38118749
Al       5.00000000      23.22500000      15.12500000       0.32893626      -0.32893626      -0.33571287
Al       7.02500000      21.20000000      15.12500000       0.32044646      -0.32044646       0.57182676
Al       7.02500000      23.22500000      13.10000000       0.24396922       0.47647691      -0.38118749
Al       9.05000000       5.00000000       5.00000000      -0.04200635      -0.20471803      -0.16040605
Al       9.05000000       7.02500000       7.02500000      -0.06214320       0.06710374       0.56855117
Al      11.07500000       5.00000000       7.02500000      -0.00934750      -0.61742633       0.23957129
Al      11.07500000       7.02500000       5.00000000      -0.01165881       0.32171505      -0.62824355
Al       9.04275963       4.81348100       9.02723689      -0.00240980      -0.00569142      -0.00151173
Al       9.05301735       6.98656723      11.05638773      -0.00505596      -0.00138503       0.03553467
Al      11.06547726       4.79560034      11.08972191       0.00263525      -0.00668798       0.00192890
Al      11.06982209       6.96414810       9.07043003       0.00159603      -0.00503885      -0.03432539
Al       9.05000000       5.00000000      13.10000000      -0.03243697      -0.59210426      -0.23175950
Al       9.05000000       7.02500000      15.12500000      -0.04734061       0.32391256       0.62546867
Al      11.07500000       5.00000000      15.12500000      -0.01076877      -0.21008406       0.16271451
Al      11.07500000       7.02500000      13.10000000      -0.00042967       0.01354448      -0.54440951
Al       9.05000000       9.05000000       5.00000000      -0.04945730      -0.04667076      -0.68937397
Al       9.05000000      11.07500000       7.02500000      -0.11077833       0.01867876       0.43899595
Al      11.07500000       9.05000000       7.02500000      -0.01533289      -0.10802666       0.42686129
Al      11.07500000      11.07500000       5.00000000      -0.01506398      -0.01249461      -0.69163866
Al       9.05306261       9.05398978       9.05439206      -0.00693362       0.00538940      -0.02431453
Al       9.05756991      11.09887849      11.07293929      -0.00810741       0.00530502       0.03188030
Al      11.07281303       9.02855588      11.07082790      -0.00271210       0.00413374       0.03272813
Al      11.08345238      11.08750383       9.06238229       0.00017627       0.01400605      -0.02823644
Al       9.05000000       9.05000000      13.10000000      -0.10376508      -0.08276598      -0.45632861
Al       9.05000000      11.07500000      15.12500000      -0.04959884      -0.01084967       0.68864715
Al      11.07500000       9.05000000      15.12500000      -0.01320476      -0.04690928       0.68807875
Al      11.07500000      11.07500000      13.10000000      -0.01746467       0.01703033      -0.39235555
Al       9.05000000      13.10000000       5.00000000      -0.05091606       0.00056788      -0.69145943
Al       9.05000000      15.12500000       7.02500000      -0.05722890      -0.00115015       0.49640620
Al      11.07500000      13.10000000       7.02500000       0.00424284       0.04432476       0.38592134
Al      11.07500000      15.12500000       5.00000000      -0.01193371      -0.00048241      -0.69068263
Al       9.04132484      13.11123839       9.06146804      -0.00116298       0.00560221      -0.02475629
Al       9.00524815      15.12538685      11.07428586      -0.00111801      -0.00317275       0.03178311
Al      11.14005616      13.17409348      11.08992248      -0.00616340      -0.00006387       0.04230919
Al      11.10738300      15.12581525       9.08568275       0.01873938      -0.00077579      -0.01838628
Al       9.05000000      13.10000000      13.10000000      -0.11003787       0.01979993      -0.44449390
Al       9.05000000      15.12500000      15.12500000      -0.04729452      -0.00165696       0.68402623
Al      11.07500000      13.10000000      15.12500000      -0.02297872      -0.00699810       0.70422509
Al      11.07500000      15.12500000      13.10000000       0.35890446       0.00693270      -0.50261785
Al       9.05000000      17.15000000       5.00000000      -0.04889892       0.01184273      -0.69172896
Al       9.05000000      19.17500000       7.02500000      -0.07711535       0.07711535       0.47165766
Al      11.07500000      17.15000000       7.02500000       0.01399205      -0.01399205       0.39284007
Al      11.07500000      19.17500000       5.00000000      -0.01184273       0.04889892      -0.69172896
Al       9.04842594      17.13924754       9.06162191       0.00700699      -0.00863239      -0.02350093
Al       9.07075223      19.15424777      11.07341812       0.00533957      -0.00533957       0.03018964
Al      11.14519640      17.07980360      11.08888666      -0.00313382       0.00313382       0.04179469
Al      11.08575246      19.17657406       9.06162191       0.00863239      -0.00700699      -0.02350093
Al       9.05000000      17.15000000      13.10000000      -0.09342549      -0.00594838      -0.44360568
Al       9.05000000      19.17500000      15.12500000      -0.04477858       0.04477858       0.68903051
Al      11.07500000      17.15000000      15.12500000      -0.02121262       0.02121262       0.70473887
Al      11.07500000      19.17500000      13.10000000       0.00594838       0.09342549      -0.44360568
Al       9.05000000      21.20000000       5.00000000      -0.04514814      -0.32239683      -0.62694413
Al       9.05000000      23.22500000       7.02500000      -0.03077658       0.58193897       0.23727755
Al      11.07500000      21.20000000       7.02500000       0.00249290      -0.04768795       0.57842987
Al      11.07500000      23.22500000       5.00000000      -0.00885580       0.21058948      -0.16142342
Al       9.05817918      21.22983720       9.06870595       0.00775624       0.00037020      -0.03130556
Al       9.04120422      23.41146291      11.09665469       0.00579457       0.00628272       0.00408240
Al      11.06763649      21.26433206      11.05235971       0.01279413       0.00066747       0.03583798
Al      11.06395167      23.43195726       9.03391343       0.00851483       0.00427125       0.00213982
Al       9.05000000      21.20000000      13.10000000      -0.05078208      -0.08322411      -0.57865840
Al       9.05000000      23.22500000      15.12500000      -0.03919655       0.20395591       0.16086824
Al      11.07500000      21.20000000      15.12500000      -0.00844832      -0.32401853       0.62600197
Al      11.07500000      23.22500000      13.10000000      -0.00724915       0.61658590      -0.24363247
Al      13.10000000       5.00000000       5.00000000       0.00255120      -0.21342455      -0.16201575
Al      13.10000000       7.02500000       7.02500000       0.00219582      -0.00555960       0.55589814
Al      15.12500000       5.00000000       7.02500000       0.01122518      -0.62398478       0.25837502
Al      15.12500000       7.02500000       5.00000000       0.00114344       0.32007959      -0.62825393
Al      13.09697894       4.78928725       9.03304796       0.00626870      -0.00553354      -0.00023691
Al      13.09729294       6.95894977      11.05124270       0.00692869      -0.00970961       0.04109098
Al      15.12666303       4.78935138      11.09127646       0.00476463      -0.00318937       0.00224699
Al      15.12741551       6.95780780       9.07228520       0.00561383      -0.01178418      -0.03634553
Al      13.10000000       5.00000000      13.10000000      -0.01023142      -0.61957009      -0.26210384
Al      13.10000000       7.02500000      15.12500000       0.00176464       0.32230723       0.62871536
Al      15.12500000       5.00000000      15.12500000       0.00050349      -0.21230949       0.16167290
Al      15.12500000       7.02500000      13.10000000      -0.00104492      -0.00026523      -0.56157672
Al      13.10000000       9.05000000       5.00000000       0.00105622      -0.05006037      -0.69076609
Al      13.10000000      11.07500000       7.02500000      -0.00617925       0.06133759       0.43511725
Al      15.12500000       9.05000000       7.02500000      -0.00036247      -0.12430961       0.42676496
Al      15.12500000      11.07500000       5.00000000       0.00036281      -0.01385048      -0.69160461
Al      13.09951124       9.02256697       9.05092994       0.00218653      -0.00012387      -0.03114100
Al      13.10007147      11.04626382      11.07563991      -0.00000826       0.01219038       0.03587847
Al      15.12729821       9.02121239      11.07071160       0.00355121      -0.00289250       0.03497171
Al      15.11267448      11.08313189       9.06119667      -0.00393132       0.01218522      -0.03016377
Al      13.10000000       9.05000000      13.10000000       0.00146070      -0.18790808      -0.36975685
Al      13.10000000      11.07500000      15.12500000       0.00002762      -0.01035875       0.68361141
Al      15.12500000       9.05000000      15.12500000      -0.00006432      -0.04867922       0.68847228
Al      15.12500000      11.07500000      13.10000000      -0.01389219       0.00720310      -0.37996149
Al      13.10000000      13.10000000       5.00000000      -0.00020512       0.00367053      -0.69074708
Al      13.10000000      15.12500000       7.02500000      -0.00887541       0.00887541       0.09628298
Al      15.12500000      13.10000000       7.02500000      -0.04374420       0.04374420       0.37399683
Al      15.12500000      15.12500000       5.00000000      -0.00367053       0.00020512      -0.69074708
Al      13.09774685      13.14169172       9.08677308      -0.00114107       0.02327333      -0.02268529
Al      15.05051244      13.17448756      11.09061173       0.00151039      -0.00151039       0.04609903
Al      15.08330828      15.12725315       9.08677308      -0.02327333       0.00114107      -0.02268529
Al      13.10000000      13.10000000      13.10000000      -0.01568055       0.38983178      -0.48523704
Al      13.10000000      15.12500000      15.12500000       0.00007718      -0.00007718       0.84284847
Al      15.12500000      13.10000000      15.12500000       0.00703868      -0.00703868       0.70377417
Al      15.12500000      15.12500000      13.10000000      -0.38983178       0.01568055      -0.48523704
Al      13.10000000      17.15000000       5.00000000       0.00048241       0.01193371      -0.69068263
Al      13.10000000      19.17500000       7.02500000       0.00115015       0.05722890       0.49640620
Al      15.12500000      17.15000000       7.02500000      -0.04432476      -0.00424284       0.38592134
Al      15.12500000      19.17500000       5.00000000      -0.00056788       0.05091606      -0.69145943
Al      13.09918475      17.11761700       9.08568275       0.00077579      -0.01873938      -0.01838628
Al      13.09961315      19.21975185      11.07428586       0.00317275       0.00111801       0.03178311
Al      15.05090652      17.08494384      11.08992248       0.00006387       0.00616340       0.04230919
Al      15.11376161      19.18367516       9.06146804      -0.00560221       0.00116298      -0.02475629
Al      13.10000000      17.15000000      13.10000000      -0.00693270      -0.35890446      -0.50261785
Al      13.10000000      19.17500000      15.12500000       0.00165696       0.04729452       0.68402623
Al      15.12500000      17.15000000      15.12500000       0.00699810       0.02297872       0.70422509
Al      15.12500000      19.17500000      13.10000000      -0.01979993       0.11003787      -0.44449390
Al      13.10000000      21.20000000       5.00000000       0.00249099      -0.32055166      -0.62740016
Al      13.10000000      23.22500000       7.02500000      -0.00953186       0.62862865       0.25587283
Al      15.12500000      21.20000000       7.02500000      -0.00279113      -0.03460157       0.59711141
Al      15.12500000      23.22500000       5.00000000      -0.00073036       0.21228570      -0.15979121
Al      13.09732533      21.26917125       9.07066369       0.00840455       0.00612356      -0.03290557
Al      13.09705855      23.43618919      11.09059146       0.00733767      -0.00108326       0.00182494
Al      15.12979475      21.27055847      11.05026280      -0.00319146       0.00712049       0.03736819
Al      15.12826904      23.43830150       9.03222407      -0.00002430      -0.00098269       0.00243569
Al      13.10000000      21.20000000      13.10000000       0.00377877       0.02827987      -0.54089259
Al      13.10000000      23.22500000      15.12500000       0.00304566       0.21049101       0.16069234
Al      15.12500000      21.20000000      15.12500000      -0.00116383      -0.32248561       0.62538958
Al      15.12500000      23.22500000      13.10000000       0.01051901       0.62184574      -0.26332180
Al      17.15000000       5.00000000       5.00000000       0.01323033      -0.21025172      -0.16065426
Al      17.15000000       7.02500000       7.02500000       0.00175811       0.02632802       0.56060763
Al      19.17500000       5.00000000       7.02500000       0.03391492      -0.58528906       0.24146695
Al      19.17500000       7.02500000       5.00000000       0.04903546       0.32100411      -0.62349293
Al      17.15878508       4.79425215       9.03456324       0.00645645      -0.00258011       0.00249228
Al      17.15396347       6.96463925      11.05303776       0.00760966      -0.00835741       0.03511003
Al      19.18171679       4.81453667      11.09684490       0.00612480       0.00142124       0.00068452
Al      19.16803925       6.99166866       9.06826613       0.01059423      -0.00799903      -0.02975385
Al      17.15000000       5.00000000      13.10000000       0.01020780      -0.61304855      -0.24759284
Al      17.15000000       7.02500000      15.12500000       0.01363907       0.32182201       0.62638235
Al      19.17500000       5.00000000      15.12500000       0.04309118      -0.20299130       0.15802644
Al      19.17500000       7.02500000      13.10000000       0.05999547       0.06706244      -0.57608300
Al      17.15000000       9.05000000       5.00000000       0.01554273      -0.05116230      -0.68981837
Al      17.15000000      11.07500000       7.02500000       0.00052941      -0.00052941       0.38636475
Al      19.17500000       9.05000000       7.02500000       0.10028478      -0.10028478       0.45246724
Al      19.17500000      11.07500000       5.00000000       0.05116230      -0.01554273      -0.68981837
Al      17.14339082       9.04117718       9.05479994       0.00872234      -0.00697214      -0.02740401
Al      17.12805034      11.09694966      11.07296015       0.00144791      -0.00144791       0.03698480
Al      19.16791562       9.05708438      11.07180978       0.01010877      -0.01010877       0.02752703
Al      19.18382282      11.08160918       9.05479994       0.00697214      -0.00872234      -0.02740401
Al      17.15000000       9.05000000      13.10000000       0.00777149      -0.11612551      -0.41990328
Al      17.15000000      11.07500000      15.12500000       0.01347402      -0.01347402       0.68885051
Al      19.17500000       9.05000000      15.12500000       0.04892400      -0.04892400       0.68757265
Al      19.17500000      11.07500000      13.10000000       0.11612551      -0.00777149      -0.41990328
Al      17.15000000      13.10000000       5.00000000       0.01385048      -0.00036281      -0.69160461
Al      17.15000000      15.12500000       7.02500000      -0.06133759       0.00617925       0.43511725
Al      19.17500000      13.10000000       7.02500000       0.12430961       0.00036247       0.42676496
Al      19.17500000      15.12500000       5.00000000       0.05006037      -0.00105622      -0.69076609
Al      17.14186811      13.11232552       9.06119667      -0.01218522       0.00393132      -0.03016377
Al      17.17873618      15.12492853      11.07563991      -0.01219038       0.00000826       0.03587847
Al      19.20378761      13.09770179      11.07071160       0.00289250      -0.00355121       0.03497171
Al      19.20243303      15.12548876       9.05092994       0.00012387      -0.00218653      -0.03114100
Al      17.15000000      13.10000000      13.10000000      -0.00720310       0.01389219      -0.37996149
Al      17.15000000      15.12500000      15.12500000       0.01035875      -0.00002762       0.68361141
Al      19.17500000      13.10000000      15.12500000       0.04867922       0.00006432       0.68847228
Al      19.17500000      15.12500000      13.10000000       0.18790808      -0.00146070      -0.36975685
Al      17.15000000      17.15000000       5.00000000       0.01249461       0.01506398      -0.69163866
Al      17.15000000      19.17500000       7.02500000      -0.01867876       0.11077833       0.43899595
Al      19.17500000      17.15000000       7.02500000       0.10802666       0.01533289       0.42686129
Al      19.17500000      19.17500000       5.00000000       0.04667076       0.04945730      -0.68937397
Al      17.13749617      17.14154762       9.06238229      -0.01400605      -0.00017627      -0.02823644
Al      17.12612151      19.16743009      11.07293929      -0.00530502       0.00810741       0.03188030
Al      19.19644412      17.15218697      11.07082790      -0.00413374       0.00271210       0.03272813
Al      19.17101022      19.17193739       9.05439206      -0.00538940       0.00693362      -0.02431453
Al      17.15000000      17.15000000      13.10000000      -0.01703033       0.01746467      -0.39235555
Al      17.15000000      19.17500000      15.12500000       0.01084967       0.04959884       0.68864715
Al      19.17500000      17.15000000      15.12500000       0.04690928       0.01320476       0.68807875
Al      19.17500000      19.17500000      13.10000000       0.08276598       0.10376508      -0.45632861
Al      17.15000000      21.20000000       5.00000000       0.01106986      -0.32048532      -0.62688452
Al      17.15000000      23.22500000       7.02500000       0.01064659       0.60229526       0.25550215
Al      19.17500000      21.20000000       7.02500000       0.05267696      -0.06870949       0.57275214
Al      19.17500000      23.22500000       5.00000000       0.04057220       0.20410473      -0.15981963
Al      17.14900055      21.25201472       9.07170456      -0.00678623       0.00689800      -0.02942273
Al      17.16044670      23.43055677      11.08916413      -0.00333434       0.00076175      -0.00048281
Al      19.16298893      21.22685637      11.05714887      -0.00472006       0.00893321       0.03416089
Al      19.18095224      23.40353885       9.02836906      -0.00266559       0.00382788       0.00034843
Al      17.15000000      21.20000000      13.10000000      -0.00941375      -0.04295140      -0.57217204
Al      17.15000000      23.22500000      15.12500000       0.01028045       0.20879159       0.16056113
Al      19.17500000      21.20000000      15.12500000       0.04474682      -0.32184211       0.62497627
Al      19.17500000      23.22500000      13.10000000       0.03019346       0.57912687      -0.24655639
Al      21.20000000       5.00000000       5.00000000      -0.45075285      -0.09637169      -0.06924426
Al      21.20000000       7.02500000       7.02500000      -0.14372233       0.14372233       0.68846706
Al      23.22500000       5.00000000       7.02500000       0.03947539      -0.03947539       0.52863951
Al      23.22500000       7.02500000       5.00000000       0.09637169       0.45075285      -0.06924426
Al      21.17760693       4.87772611       9.04683826       0.00096185       0.00141818      -0.00367446
Al      21.19593160       7.02906840      11.04290126       0.00667753      -0.00667753       0.03516152
Al      23.24784621       4.97715379      11.07424534       0.00169479      -0.00169479      -0.03698339
Al      23.34727389       7.04739307       9.04683826      -0.00141818      -0.00096185      -0.00367446
Al      21.20000000       5.00000000      13.10000000      -0.24259567      -0.47823558      -0.38597346
Al      21.20000000       7.02500000      15.12500000      -0.31825172       0.31825172       0.56688874
Al      23.22500000       5.00000000      15.12500000      -0.33072595       0.33072595      -0.34053296
Al      23.22500000       7.02500000      13.10000000       0.47823558       0.24259567      -0.38597346
Al      21.20000000       9.05000000       5.00000000      -0.32100411      -0.04903546      -0.62349293
Al      21.20000000      11.07500000       7.02500000      -0.02632802      -0.00175811       0.56060763
Al      23.22500000       9.05000000       7.02500000       0.58528906      -0.03391492       0.24146695
Al      23.22500000      11.07500000       5.00000000       0.21025172      -0.01323033      -0.16065426
Al      21.23333134       9.05696075       9.06826613       0.00799903      -0.01059423      -0.02975385
Al      21.26036075      11.07103653      11.05303776       0.00835741      -0.00760966       0.03511003
Al      23.41046333       9.04328321      11.09684490      -0.00142124      -0.00612480       0.00068452
Al      23.43074785      11.06621492       9.03456324       0.00258011      -0.00645645       0.00249228
Al      21.20000000       9.05000000      13.10000000      -0.06706244      -0.05999547      -0.57608300
Al      21.20000000      11.07500000      15.12500000      -0.32182201      -0.01363907       0.62638235
Al      23.22500000       9.05000000      15.12500000       0.20299130      -0.04309118       0.15802644
Al      23.22500000      11.07500000      13.10000000       0.61304855      -0.01020780      -0.24759284
Al      21.20000000      13.10000000       5.00000000      -0.32007959      -0.00114344      -0.62825393
Al      21.20000000      15.12500000       7.02500000       0.00555960      -0.00219582       0.55589814
Al      23.22500000      13.10000000       7.02500000       0.62398478      -0.01122518       0.25837502
Al      23.22500000      15.12500000       5.00000000       0.21342455      -0.00255120      -0.16201575
Al      21.26719220      13.09758449       9.07228520       0.01178418      -0.00561383      -0.03634553
Al      21.26605023      15.12770706      11.05124270       0.00970961      -0.00692869       0.04109098
Al      23.43564862      13.09833697      11.09127646       0.00318937      -0.00476463       0.00224699
Al      23.43571275      15.12802106       9.03304796       0.00553354      -0.00626870      -0.00023691
Al      21.20000000      13.10000000      13.10000000       0.00026523       0.00104492      -0.56157672
Al      21.20000000      15.12500000      15.12500000      -0.32230723      -0.00176464       0.62871536
Al      23.22500000      13.10000000      15.12500000       0.21230949      -0.00050349       0.16167290
Al      23.22500000      15.12500000      13.10000000       0.61957009       0.01023142      -0.26210384
Al      21.20000000      17.15000000       5.00000000      -0.32171505       0.01165881      -0.62824355
Al      21.20000000      19.17500000       7.02500000      -0.06710374       0.06214320       0.56855117
Al      23.22500000      17.15000000       7.02500000       0.61742633       0.00934750       0.23957129
Al      23.22500000      19.17500000       5.00000000       0.20471803       0.04200635      -0.16040605
Al      21.26085190      17.15517791       9.07043003       0.00503885      -0.00159603      -0.03432539
Al      21.23843277      19.17198265      11.05638773       0.00138503       0.00505596       0.03553467
Al      23.42939966      17.15952274      11.08972191       0.00668798      -0.00263525       0.00192890
Al      23.41151900      19.18224037       9.02723689       0.00569142       0.00240980      -0.00151173
Al      21.20000000      17.15000000      13.10000000      -0.01354448       0.00042967      -0.54440951