299
Lattice="28.224999999999998 0.0 0.0 0.0 28.224999999999998 0.0 0.0 0.0 20.125" Properties=species:S:1:pos:R:3:forces:R:3 energy=-16469.30365826429 pbc="T T T"
Al       5.00000000       5.00000000       5.00000000       0.32715162       0.32771475       0.33266368
Al       5.00000000       7.02500000       7.02500000      -0.49843032       0.24873078       0.37106852
Al       7.02500000       5.00000000       7.02500000       0.24404742      -0.49763696       0.36558032
Al       7.02500000       7.02500000       5.00000000       0.32353619       0.32464375      -0.58559841
Al       4.97761413       4.97739949       9.04708396      -0.01343407      -0.01142364       0.05278980
Al       4.88348864       7.04843878      11.08049277      -0.00712654       0.00179345      -0.02599181
Al       7.04656415       4.87433445      11.08114830      -0.00061897      -0.00565552      -0.02649567
Al       7.02868521       7.02733352       9.08021123      -0.00485424      -0.00225920       0.01809791
Al       5.00000000       5.00000000      13.10000000      -0.05142432      -0.04609070      -0.51971989
Al       5.00000000       7.02500000      15.12500000      -0.09044947       0.45700229       0.08406256
Al       7.02500000       5.00000000      15.12500000       0.45559096      -0.09062348       0.08331534
Al       7.02500000       7.02500000      13.10000000       0.15380114       0.15769332      -0.65714317
Al       5.00000000       9.05000000       5.00000000      -0.19769808      -0.03762160      -0.17374439
Al       5.00000000      11.07500000       7.02500000      -0.61691279      -0.00723931       0.24272967
Al       7.02500000       9.05000000       7.02500000       0.07680278      -0.04668307       0.54941933
Al       7.02500000      11.07500000       5.00000000       0.32764258      -0.00788752      -0.64090513
Al       4.82158495       9.04419015       9.02557249      -0.00568452       0.00614414       0.03805577
Al       4.79478684      11.06511845      11.09215158      -0.00018494       0.00753489      -0.02942927
Al       6.99763948       9.06237089      11.05889509      -0.00096048       0.00954986      -0.00349657
Al       6.97216111      11.07649062       9.06995772       0.00241972       0.01016498       0.02228938
Al       5.00000000       9.05000000      13.10000000      -0.58968891      -0.02395282      -0.23002511
Al       5.00000000      11.07500000      15.12500000      -0.19647956      -0.00557903       0.17112565
Al       7.02500000       9.05000000      15.12500000       0.33234671      -0.03781203       0.63622698
Al       7.02500000      11.07500000      13.10000000       0.05506702       0.01584318      -0.54298393
Al       5.00000000      13.10000000       5.00000000      -0.20502687       0.00255750      -0.17279823
Al       5.00000000      15.12500000       7.02500000      -0.64269948       0.00961394       0.24224101
Al       7.02500000      13.10000000       7.02500000       0.04231501       0.00459918       0.57288916
Al       7.02500000      15.12500000       5.00000000       0.32693349      -0.00237654      -0.64072408
Al       4.78734773      13.09707795       9.02925978      -0.00163734       0.00230795       0.04153248
Al       4.78959426      15.12739868      11.09379005       0.00168784      -0.00392954      -0.02733777
Al       6.95343103      13.09570716      11.05250132       0.00390674       0.00305856      -0.00164563
Al       6.95490929      15.12723836       9.06883058       0.00183328      -0.00332825       0.02032113
Al       5.00000000      13.10000000      13.10000000      -0.63055816      -0.00795245      -0.24348110
Al       5.00000000      15.12500000      15.12500000      -0.19699390      -0.00282734       0.16980463
Al       7.02500000      13.10000000      15.12500000       0.33265191       0.00377341       0.63395311
Al       7.02500000      15.12500000      13.10000000      -0.01804325      -0.00342560      -0.50967860
Al       5.00000000      17.15000000       5.00000000      -0.20321577       0.00726104      -0.17418053
Al       5.00000000      19.17500000       7.02500000      -0.59522441       0.02784405       0.22830886
Al       7.02500000      17.15000000       7.02500000       0.05544130      -0.00528562       0.55760070
Al       7.02500000      19.17500000       5.00000000       0.32827531       0.04201616      -0.64095791
Al       4.79341596      17.16033216       9.03111742      -0.00372297      -0.00745157       0.04203913
Al       4.81381625      19.18351355      11.09963251      -0.00260491      -0.00737306      -0.02656768
Al       6.96047482      17.15680784      11.05436358       0.00411877      -0.01153122      -0.00240839
Al       6.99530187      19.16643550       9.06727177      -0.00114380      -0.00783586       0.01913491
Al       5.00000000      17.15000000      13.10000000      -0.62392818       0.00465750      -0.22743762
Al       5.00000000      19.17500000      15.12500000      -0.19101084       0.03559834       0.17027390
Al       7.02500000      17.15000000      15.12500000       0.33361760       0.00606921       0.63441595
Al       7.02500000      19.17500000      13.10000000       0.09440269       0.04436516      -0.55191365
Al       5.00000000      21.20000000       5.00000000      -0.09412354      -0.45390792      -0.08571077
Al       5.00000000      23.22500000       7.02500000      -0.05083469       0.05083469       0.52444974
Al       7.02500000      21.20000000       7.02500000       0.15781393      -0.15781393       0.65778564
Al       7.02500000      23.22500000       5.00000000       0.45390792       0.09412354      -0.08571077
Al       4.88197323      21.17623136       9.04363374      -0.00789704      -0.00016161       0.03509854
Al       4.98126654      23.24373346      11.07622563      -0.01109015       0.01109015      -0.04574837
Al       7.03457239      21.19042761      11.04573858      -0.00184026       0.00184026      -0.00358602
Al       7.04876864      23.34302677       9.04363374       0.00016161       0.00789704       0.03509854
Al       5.00000000      21.20000000      13.10000000      -0.48509365      -0.25037985      -0.36551061
Al       5.00000000      23.22500000      15.12500000       0.33187533      -0.33187533      -0.33298222
Al       7.02500000      21.20000000      15.12500000       0.32867042      -0.32867042       0.58230109
Al       7.02500000      23.22500000      13.10000000       0.25037985       0.48509365      -0.36551061
Al       9.05000000       5.00000000       5.00000000      -0.03805398      -0.19822210      -0.17335763
Al       9.05000000       7.02500000       7.02500000      -0.05538510       0.07491975       0.54734094
Al      11.07500000       5.00000000       7.02500000      -0.00525800      -0.63049102       0.22960012
Al      11.07500000       7.02500000       5.00000000      -0.00722528       0.32850575      -0.64042793
Al       9.04240063       4.81360223       9.02438169       0.00436545      -0.00532057       0.03774972
Al       9.05254352       6.98661335      11.05812946       0.00708464       0.00102452      -0.00460883
Al      11.06577672       4.79560889      11.09272667       0.00732761      -0.00077440      -0.03071599
Al      11.06977730       6.96360330       9.06852773       0.01010553       0.00250472       0.02188529
Al       9.05000000       5.00000000      13.10000000      -0.02648854      -0.60199353      -0.21768888
Al       9.05000000       7.02500000      15.12500000      -0.03967015       0.33396236       0.63625084
Al      11.07500000       5.00000000      15.12500000      -0.00629844      -0.19751698       0.17246521
Al      11.07500000       7.02500000      13.10000000       0.00602223       0.02594440      -0.51962870
Al       9.05000000       9.05000000       5.00000000      -0.04364064      -0.04267440      -0.70179825
Al       9.05000000      11.07500000       7.02500000      -0.10532165       0.02209727       0.42095659
Al      11.07500000       9.05000000       7.02500000      -0.01056912      -0.10340033       0.41131462
Al      11.07500000      11.07500000       5.00000000      -0.01171336      -0.01143780      -0.70231776
Al       9.05226242       9.05408113       9.05301409       0.00880347       0.01203726       0.02120236
Al       9.05671949      11.09915515      11.07474838       0.00793874       0.00925964      -0.00241484
Al      11.07214346       9.02851512      11.07265921       0.01066446       0.01221614      -0.00528943
Al      11.08284367      11.08783718       9.06074709       0.01127777       0.01428772       0.02718757
Al       9.05000000       9.05000000      13.10000000      -0.09493220      -0.07341706      -0.43071861
Al       9.05000000      11.07500000      15.12500000      -0.04247678      -0.00672180       0.69518224
Al      11.07500000       9.05000000      15.12500000      -0.00802879      -0.04044319       0.69372963
Al      11.07500000      11.07500000      13.10000000      -0.01444582       0.02058318      -0.37083532
Al       9.05000000      13.10000000       5.00000000      -0.04698270       0.00138235      -0.70356343
Al       9.05000000      15.12500000       7.02500000      -0.05529101      -0.00035379       0.47566565
Al      11.07500000      13.10000000       7.02500000       0.00499022       0.04343638       0.36913616
Al      11.07500000      15.12500000       5.00000000      -0.01066874      -0.00054442      -0.70327075
Al       9.04040625      13.11163903       9.06001157       0.01041587       0.00161487       0.02410637
Al       9.00457368      15.12543040      11.07614115       0.00949319      -0.00108173      -0.00076763
Al      11.13959646      13.17468490      11.09182236       0.00741101      -0.00467239       0.00393839
Al      11.10685802      15.12598917       9.08396433       0.02796193      -0.00049051       0.03309118
Al       9.05000000      13.10000000      13.10000000      -0.10425022       0.02101349      -0.41789733
Al       9.05000000      15.12500000      15.12500000      -0.04294111      -0.00161913       0.69094386
Al      11.07500000      13.10000000      15.12500000      -0.02071896      -0.00701253       0.71059377
Al      11.07500000      15.12500000      13.10000000       0.36630309       0.00834926      -0.48216575
Al       9.05000000      17.15000000       5.00000000      -0.04535498       0.01011237      -0.70383354
Al       9.05000000      19.17500000       7.02500000      -0.07227042       0.07227042       0.45316546
Al      11.07500000      17.15000000       7.02500000       0.01434159      -0.01434159       0.37541155
Al      11.07500000      19.17500000       5.00000000      -0.01011237       0.04535498      -0.70383354
Al       9.04810511      17.13941678       9.06033538       0.01403726      -0.01141070       0.02379705
Al       9.07092170      19.15407830      11.07491941       0.01043236      -0.01043236       0.00146087
Al      11.14486476      17.08013524      11.09078664       0.00458650      -0.00458650       0.00580041
Al      11.08558322      19.17689489       9.06033538       0.01141070      -0.01403726       0.02379705
Al       9.05000000      17.15000000      13.10000000      -0.08773828      -0.00810110      -0.41811927
Al       9.05000000      19.17500000      15.12500000      -0.03987396       0.03987396       0.69639448
Al      11.07500000      17.15000000      15.12500000      -0.01946583       0.01946583       0.71112934
Al      11.07500000      19.17500000      13.10000000       0.00810110       0.08773828      -0.41811927
Al       9.05000000      21.20000000       5.00000000      -0.04201616      -0.32827531      -0.64095791
Al       9.05000000      23.22500000       7.02500000      -0.02784405       0.59522441       0.22830886
Al      11.07500000      21.20000000       7.02500000       0.00528562      -0.05544130       0.55760070
Al      11.07500000      23.22500000       5.00000000      -0.00726104       0.20321577      -0.17418053
Al       9.05856450      21.22969813       9.06727177       0.00783586       0.00114380       0.01913491
Al       9.04148645      23.41118375      11.09963251       0.00737306       0.00260491      -0.02656768
Al      11.06819216      21.26452518      11.05436358       0.01153122      -0.00411877      -0.00240839
Al      11.06466784      23.43158404       9.03111742       0.00745157       0.00372297       0.04203913
Al       9.05000000      21.20000000      13.10000000      -0.04436516      -0.09440269      -0.55191365
Al       9.05000000      23.22500000      15.12500000      -0.03559834       0.19101084       0.17027390
Al      11.07500000      21.20000000      15.12500000      -0.00606921      -0.33361760       0.63441595
Al      11.07500000      23.22500000      13.10000000      -0.00465750       0.62392818      -0.22743762
Al      13.10000000       5.00000000       5.00000000       0.00404900      -0.20491513      -0.17329240
Al      13.10000000       7.02500000       7.02500000       0.00493618       0.00284860       0.53641318
Al      15.12500000       5.00000000       7.02500000       0.01147814      -0.63633860       0.24608217
Al      15.12500000       7.02500000       5.00000000       0.00030213       0.32782518      -0.63887683
Al      13.09754142       4.78947669       9.03001034       0.00552689      -0.00087685       0.04053166
Al      13.09775442       6.95784107      11.05353055       0.00566105       0.00432325      -0.00566503
Al      15.12677130       4.78963300      11.09449577       0.00135976       0.00273523      -0.03052182
Al      15.12759017       6.95651116       9.07021480       0.00268188       0.00250432       0.02110947
Al      13.10000000       5.00000000      13.10000000      -0.00821627      -0.62726321      -0.24558376
Al      13.10000000       7.02500000      15.12500000       0.00362640       0.33340343       0.63574927
Al      15.12500000       5.00000000      15.12500000      -0.00143308      -0.19859805       0.17051152
Al      15.12500000       7.02500000      13.10000000      -0.00175308       0.01229612      -0.53501667
Al      13.10000000       9.05000000       5.00000000       0.00314304      -0.04684042      -0.70019358
Al      13.10000000      11.07500000       7.02500000      -0.00492489       0.05999324       0.42029571
Al      15.12500000       9.05000000       7.02500000       0.00111211      -0.12061359       0.41170205
Al      15.12500000      11.07500000       5.00000000       0.00146773      -0.01371190      -0.70113267
Al      13.09954816       9.02212938       9.04923471       0.00352555       0.00770514       0.02374509
Al      13.10002651      11.04668414      11.07760011       0.00213069       0.01488813      -0.00578392
Al      15.12745725       9.02063468      11.07272070       0.00316306       0.00811043      -0.00624979
Al      15.11245012      11.08335565       9.05958127       0.00181083       0.01506081       0.02751940
Al      13.10000000       9.05000000      13.10000000       0.00317168      -0.18241917      -0.34716365
Al      13.10000000      11.07500000      15.12500000       0.00125283      -0.00934456       0.68897489
Al      15.12500000       9.05000000      15.12500000      -0.00114038      -0.04265576       0.69280909
Al      15.12500000      11.07500000      13.10000000      -0.01281009       0.00926727      -0.36008386
Al      13.10000000      13.10000000       5.00000000       0.00085747       0.00231828      -0.70323874
Al      13.10000000      15.12500000       7.02500000      -0.00930748       0.00930748       0.08312494
Al      15.12500000      13.10000000       7.02500000      -0.04117614       0.04117614       0.36069866
Al      15.12500000      15.12500000       5.00000000      -0.00231828      -0.00085747      -0.70323874
Al      13.09760884      13.14201971       9.08492028       0.00325206       0.01743167       0.03405446
Al      15.05011221      13.17488779      11.09247332       0.00431742      -0.00431742       0.00234626
Al      15.08298029      15.12739116       9.08492028      -0.01743167      -0.00325206       0.03405446
Al      13.10000000      13.10000000      13.10000000      -0.01608859       0.39413619      -0.46697916
Al      13.10000000      15.12500000      15.12500000       0.00045300      -0.00045300       0.84943529
Al      15.12500000      13.10000000      15.12500000       0.00790369      -0.00790369       0.70995010
Al      15.12500000      15.12500000      13.10000000      -0.39413619       0.01608859      -0.46697916
Al      13.10000000      17.15000000       5.00000000       0.00054442       0.01066874      -0.70327075
Al      13.10000000      19.17500000       7.02500000       0.00035379       0.05529101       0.47566565
Al      15.12500000      17.15000000       7.02500000      -0.04343638      -0.00499022       0.36913616
Al      15.12500000      19.17500000       5.00000000      -0.00138235       0.04698270      -0.70356343
Al      13.09901083      17.11814198       9.08396433       0.00049051      -0.02796193       0.03309118
Al      13.09956960      19.22042632      11.07614115       0.00108173      -0.00949319      -0.00076763
Al      15.05031510      17.08540354      11.09182236       0.00467239      -0.00741101       0.00393839
Al      15.11336097      19.18459375       9.06001157      -0.00161487      -0.01041587       0.02410637
Al      13.10000000      17.15000000      13.10000000      -0.00834926      -0.36630309      -0.48216575
Al      13.10000000      19.17500000      15.12500000       0.00161913       0.04294111       0.69094386
Al      15.12500000      17.15000000      15.12500000       0.00701253       0.02071896       0.71059377
Al      15.12500000      19.17500000      13.10000000      -0.02101349       0.10425022      -0.41789733
Al      13.10000000      21.20000000       5.00000000       0.00237654      -0.32693349      -0.64072408
Al      13.10000000      23.22500000       7.02500000      -0.00961394       0.64269948       0.24224101
Al      15.12500000      21.20000000       7.02500000      -0.00459918      -0.04231501       0.57288916
Al      15.12500000      23.22500000       5.00000000      -0.00255750       0.20502687      -0.17279823
Al      13.09776164      21.27009071       9.06883058       0.00332825      -0.00183328       0.02032113
Al      13.09760132      23.43540574      11.09379005       0.00392954      -0.00168784      -0.02733777
Al      15.12929284      21.27156897      11.05250132      -0.00305856      -0.00390674      -0.00164563
Al      15.12792205      23.43765227       9.02925978      -0.00230795       0.00163734       0.04153248
Al      13.10000000      21.20000000      13.10000000       0.00342560       0.01804325      -0.50967860
Al      13.10000000      23.22500000      15.12500000       0.00282734       0.19699390       0.16980463
Al      15.12500000      21.20000000      15.12500000      -0.00377341      -0.33265191       0.63395311
Al      15.12500000      23.22500000      13.10000000       0.00795245       0.63055816      -0.24348110
Al      17.15000000       5.00000000       5.00000000       0.00980957      -0.20192139      -0.17255280
Al      17.15000000       7.02500000       7.02500000      -0.00154630       0.03587922       0.53977972
Al      19.17500000       5.00000000       7.02500000       0.02996879      -0.59869318       0.22885632
Al      19.17500000       7.02500000       5.00000000       0.04348740       0.32888253      -0.63652683
Al      17.15907169       4.79446771       9.03176268      -0.00121190       0.00008421       0.04054061
Al      17.15450129       6.96380777      11.05509927      -0.00474005       0.00495712      -0.00853279
Al      19.18235930       4.81498004      11.09974709      -0.00281565       0.00118156      -0.03030357
Al      19.16880617       6.99121050       9.06661798      -0.00309622      -0.00043525       0.01740486
Al      17.15000000       5.00000000      13.10000000       0.00646855      -0.62122497      -0.23171117
Al      17.15000000       7.02500000      15.12500000       0.00811383       0.33354822       0.63455607
Al      19.17500000       5.00000000      15.12500000       0.03720769      -0.19175407       0.16928047
Al      19.17500000       7.02500000      13.10000000       0.05132816       0.07978618      -0.54677460
Al      17.15000000       9.05000000       5.00000000       0.01252979      -0.04614547      -0.69854923
Al      17.15000000      11.07500000       7.02500000      -0.00041482       0.00041482       0.37410466
Al      19.17500000       9.05000000       7.02500000       0.09388353      -0.09388353       0.43241878
Al      19.17500000      11.07500000       5.00000000       0.04614547      -0.01252979      -0.69854923
Al      17.14430995       9.04025775       9.05315109      -0.00446959       0.00860312       0.02438370
Al      17.12825056      11.09674944      11.07506396      -0.00568058       0.00568058      -0.00726131
Al      19.16879347       9.05620653      11.07341590      -0.00777574       0.00777574      -0.00610141
Al      19.18474225      11.08069005       9.05315109      -0.00860312       0.00446959       0.02438370
Al      17.15000000       9.05000000      13.10000000       0.00362393      -0.10801319      -0.39743247
Al      17.15000000      11.07500000      15.12500000       0.01036683      -0.01036683       0.69259010
Al      19.17500000       9.05000000      15.12500000       0.04077494      -0.04077494       0.69450779
Al      19.17500000      11.07500000      13.10000000       0.10801319      -0.00362393      -0.39743247
Al      17.15000000      13.10000000       5.00000000       0.01371190      -0.00146773      -0.70113267
Al      17.15000000      15.12500000       7.02500000      -0.05999324       0.00492489       0.42029571
Al      19.17500000      13.10000000       7.02500000       0.12061359      -0.00111211       0.41170205
Al      19.17500000      15.12500000       5.00000000       0.04684042      -0.00314304      -0.70019358
Al      17.14164435      13.11254988       9.05958127      -0.01506081      -0.00181083       0.02751940
Al      17.17831586      15.12497349      11.07760011      -0.01488813      -0.00213069      -0.00578392
Al      19.20436532      13.09754275      11.07272070      -0.00811043      -0.00316306      -0.00624979
Al      19.20287062      15.12545184       9.04923471      -0.00770514      -0.00352555       0.02374509
Al      17.15000000      13.10000000      13.10000000      -0.00926727       0.01281009      -0.36008386
Al      17.15000000      15.12500000      15.12500000       0.00934456      -0.00125283       0.68897489
Al      19.17500000      13.10000000      15.12500000       0.04265576       0.00114038       0.69280909
Al      19.17500000      15.12500000      13.10000000       0.18241917      -0.00317168      -0.34716365
Al      17.15000000      17.15000000       5.00000000       0.01143780       0.01171336      -0.70231776
Al      17.15000000      19.17500000       7.02500000      -0.02209727       0.10532165       0.42095659
Al      19.17500000      17.15000000       7.02500000       0.10340033       0.01056912       0.41131462
Al      19.17500000      19.17500000       5.00000000       0.04267440       0.04364064      -0.70179825
Al      17.13716282      17.14215633       9.06074709      -0.01428772      -0.01127777       0.02718757
Al      17.12584485      19.16828051      11.07474838      -0.00925964      -0.00793874      -0.00241484
Al      19.19648488      17.15285654      11.07265921      -0.01221614      -0.01066446      -0.00528943
Al      19.17091887      19.17273758       9.05301409      -0.01203726      -0.00880347       0.02120236
Al      17.15000000      17.15000000      13.10000000      -0.02058318       0.01444582      -0.37083532
Al      17.15000000      19.17500000      15.12500000       0.00672180       0.04247678       0.69518224
Al      19.17500000      17.15000000      15.12500000       0.04044319       0.00802879       0.69372963
Al      19.17500000      19.17500000      13.10000000       0.07341706       0.09493220      -0.43071861
Al      17.15000000      21.20000000       5.00000000       0.00788752      -0.32764258      -0.64090513
Al      17.15000000      23.22500000       7.02500000       0.00723931       0.61691279       0.24272967
Al      19.17500000      21.20000000       7.02500000       0.04668307      -0.07680278       0.54941933
Al      19.17500000      23.22500000       5.00000000       0.03762160       0.19769808      -0.17374439
Al      17.14850938      21.25283889       9.06995772      -0.01016498      -0.00241972       0.02228938
Al      17.15988155      23.43021316      11.09215158      -0.00753489       0.00018494      -0.02942927
Al      19.16262911      21.22736052      11.05889509      -0.00954986       0.00096048      -0.00349657
Al      19.18080985      23.40341505       9.02557249      -0.00614414       0.00568452       0.03805577
Al      17.15000000      21.20000000      13.10000000      -0.01584318      -0.05506702      -0.54298393
Al      17.15000000      23.22500000      15.12500000       0.00557903       0.19647956       0.17112565
Al      19.17500000      21.20000000      15.12500000       0.03781203      -0.33234671       0.63622698
Al      19.17500000      23.22500000      13.10000000       0.02395282       0.58968891      -0.23002511
Al      21.20000000       5.00000000       5.00000000      -0.45391447      -0.09242698      -0.08249401
Al      21.20000000       7.02500000       7.02500000      -0.15120223       0.15120223       0.66111874
Al      23.22500000       5.00000000       7.02500000       0.04941021      -0.04941021       0.52129749
Al      23.22500000       7.02500000       5.00000000       0.09242698       0.45391447      -0.08249401
Al      21.17796498       4.87847813       9.04402025       0.00030953      -0.00324000       0.03318342
Al      21.19630963       7.02869037      11.04501851       0.00130769      -0.00130769      -0.00869966
Al      23.24737920       4.97762080      11.07798851       0.00769958      -0.00769958      -0.04864800
Al      23.34652187       7.04703502       9.04402025       0.00324000      -0.00030953       0.03318342
Al      21.20000000       5.00000000      13.10000000      -0.24883589      -0.49057295      -0.36689848
Al      21.20000000       7.02500000      15.12500000      -0.32773957       0.32773957       0.58013180
Al      23.22500000       5.00000000      15.12500000      -0.33128138       0.33128138      -0.33542478
Al      23.22500000       7.02500000      13.10000000       0.49057295       0.24883589      -0.36689848
Al      21.20000000       9.05000000       5.00000000      -0.32888253      -0.04348740      -0.63652683
Al      21.20000000      11.07500000       7.02500000      -0.03587922       0.00154630       0.53977972
Al      23.22500000       9.05000000       7.02500000       0.59869318      -0.02996879       0.22885632
Al      23.22500000      11.07500000       5.00000000       0.20192139      -0.00980957      -0.17255280
Al      21.23378950       9.05619383       9.06661798       0.00043525       0.00309622       0.01740486
Al      21.26119223      11.07049871      11.05509927      -0.00495712       0.00474005      -0.00853279
Al      23.41001996       9.04264070      11.09974709      -0.00118156       0.00281565      -0.03030357
Al      23.43053229      11.06592831       9.03176268      -0.00008421       0.00121190       0.04054061
Al      21.20000000       9.05000000      13.10000000      -0.07978618      -0.05132816      -0.54677460
Al      21.20000000      11.07500000      15.12500000      -0.33354822      -0.00811383       0.63455607
Al      23.22500000       9.05000000      15.12500000       0.19175407      -0.03720769       0.16928047
Al      23.22500000      11.07500000      13.10000000       0.62122497      -0.00646855      -0.23171117
Al      21.20000000      13.10000000       5.00000000      -0.32782518      -0.00030213      -0.63887683
Al      21.20000000      15.12500000       7.02500000      -0.00284860      -0.00493618       0.53641318
Al      23.22500000      13.10000000       7.02500000       0.63633860      -0.01147814       0.24608217
Al      23.22500000      15.12500000       5.00000000       0.20491513      -0.00404900      -0.17329240
Al      21.26848884      13.09740983       9.07021480      -0.00250432      -0.00268188       0.02110947
Al      21.26715893      15.12724558      11.05353055      -0.00432325      -0.00566105      -0.00566503
Al      23.43536700      13.09822870      11.09449577      -0.00273523      -0.00135976      -0.03052182
Al      23.43552331      15.12745858       9.03001034       0.00087685      -0.00552689       0.04053166
Al      21.20000000      13.10000000      13.10000000      -0.01229612       0.00175308      -0.53501667
Al      21.20000000      15.12500000      15.12500000      -0.33340343      -0.00362640       0.63574927
Al      23.22500000      13.10000000      15.12500000       0.19859805       0.00143308       0.17051152
Al      23.22500000      15.12500000      13.10000000       0.62726321       0.00821627      -0.24558376
Al      21.20000000      17.15000000       5.00000000      -0.32850575       0.00722528      -0.64042793
Al      21.20000000      19.17500000       7.02500000      -0.07491975       0.05538510       0.54734094
Al      23.22500000      17.15000000       7.02500000       0.63049102       0.00525800       0.22960012
Al      23.22500000      19.17500000       5.00000000       0.19822210       0.03805398      -0.17335763
Al      21.26139670      17.15522270       9.06852773      -0.00250472      -0.01010553       0.02188529
Al      21.23838665      19.17245648      11.05812946      -0.00102452      -0.00708464      -0.00460883
Al      23.42939111      17.15922328      11.09272667       0.00077440      -0.00732761      -0.03071599
Al      23.41139777      19.18259937       9.02438169       0.00532057      -0.00436545       0.03774972
Al      21.20000000      17.15000000      13.10000000      -0.02594440      -0.00602223      -0.51962870