299
Lattice="28.224999999999998 0.0 0.0 0.0 28.224999999999998 0.0 0.0 0.0 20.125" Properties=species:S:1:pos:R:3:forces:R:3 energy=-16469.299118243845 pbc="T T T"
Al       5.00000000       5.00000000       5.00000000       0.32651637       0.32633381       0.33431925
Al       5.00000000       7.02500000       7.02500000      -0.50072216       0.24384102       0.37054374
Al       7.02500000       5.00000000       7.02500000       0.23959207      -0.50046633       0.36724043
Al       7.02500000       7.02500000       5.00000000       0.32378534       0.32367021      -0.58850750
Al       4.97756165       4.97815718       9.04733772      -0.01063028      -0.01079568       0.05751491
Al       4.88211456       7.04885008      11.08264278      -0.00310565      -0.00276987      -0.04484993
Al       7.04648953       4.87405464      11.08310345      -0.00274637      -0.00402975      -0.04509785
Al       7.02819493       7.02727926       9.07923215      -0.00644440      -0.00620077       0.03772988
Al       5.00000000       5.00000000      13.10000000      -0.05376851      -0.04919976      -0.51937232
Al       5.00000000       7.02500000      15.12500000      -0.09505134       0.45387560       0.08390740
Al       7.02500000       5.00000000      15.12500000       0.45399619      -0.09577006       0.08281841
Al       7.02500000       7.02500000      13.10000000       0.14661751       0.14907077      -0.65891904
Al       5.00000000       9.05000000       5.00000000      -0.19955199      -0.03724103      -0.17483041
Al       5.00000000      11.07500000       7.02500000      -0.62188648      -0.00795724       0.23602228
Al       7.02500000       9.05000000       7.02500000       0.07146293      -0.04984729       0.54510753
Al       7.02500000      11.07500000       5.00000000       0.33090815      -0.00549605      -0.64743912
Al       4.82042717       9.04402411       9.02428197      -0.00334124       0.00152953       0.05041764
Al       4.79374596      11.06509512      11.09358832      -0.00188406       0.00404223      -0.04635175
Al       6.99703191       9.06222391      11.06056118      -0.00470874       0.00206843      -0.03317081
Al       6.97164395      11.07622972       9.06852634      -0.00171064       0.00679183       0.04003560
Al       5.00000000       9.05000000      13.10000000      -0.59785940      -0.02638655      -0.22590569
Al       5.00000000      11.07500000      15.12500000      -0.20187845      -0.00628888       0.17496111
Al       7.02500000       9.05000000      15.12500000       0.33062468      -0.03939403       0.64371238
Al       7.02500000      11.07500000      13.10000000       0.04674813       0.01313967      -0.53799617
Al       5.00000000      13.10000000       5.00000000      -0.20487941       0.00324751      -0.17506773
Al       5.00000000      15.12500000       7.02500000      -0.64736173       0.01073197       0.23384576
Al       7.02500000      13.10000000       7.02500000       0.03836876       0.00494275       0.56092122
Al       7.02500000      15.12500000       5.00000000       0.33090569      -0.00333581      -0.64732471
Al       4.78677168      13.09717022       9.02793091      -0.00286061       0.00156746       0.05025932
Al       4.78900944      15.12747019      11.09528512      -0.00153238      -0.00291280      -0.04445174
Al       6.95307933      13.09549888      11.05399738      -0.00185638       0.00305507      -0.02905603
Al       6.95459991      15.12745637       9.06733696      -0.00281950      -0.00330086       0.03697939
Al       5.00000000      13.10000000      13.10000000      -0.64033355      -0.00860294      -0.23836839
Al       5.00000000      15.12500000      15.12500000      -0.20250957      -0.00295171       0.17420060
Al       7.02500000      13.10000000      15.12500000       0.33282330       0.00374527       0.64439108
Al       7.02500000      15.12500000      13.10000000      -0.02584674      -0.00292152      -0.50346959
Al       5.00000000      17.15000000       5.00000000      -0.20421415       0.00668512      -0.17567913
Al       5.00000000      19.17500000       7.02500000      -0.60017435       0.02928830       0.22286715
Al       7.02500000      17.15000000       7.02500000       0.05008765      -0.00414282       0.54771627
Al       7.02500000      19.17500000       5.00000000       0.32898624       0.04044895      -0.64540320
Al       4.79278713      17.16050156       9.02989568      -0.00439374      -0.00455228       0.05144018
Al       4.81302485      19.18388385      11.10102713      -0.00294173      -0.00272056      -0.04539569
Al       6.95986854      17.15717394      11.05593825       0.00031184      -0.00826559      -0.03200403
Al       6.99476235      19.16671961       9.06562476      -0.00369985      -0.00268602       0.04042627
Al       5.00000000      17.15000000      13.10000000      -0.63443550       0.00758424      -0.22432150
Al       5.00000000      19.17500000      15.12500000      -0.19791008       0.03707092       0.17244292
Al       7.02500000      17.15000000      15.12500000       0.33235759       0.00510010       0.64386080
Al       7.02500000      19.17500000      13.10000000       0.08453594       0.04985766      -0.55178468
Al       5.00000000      21.20000000       5.00000000      -0.09667006      -0.45293489      -0.08414068
Al       5.00000000      23.22500000       7.02500000      -0.05165247       0.05165247       0.52312657
Al       7.02500000      21.20000000       7.02500000       0.15204715      -0.15204715       0.65611424
Al       7.02500000      23.22500000       5.00000000       0.45293489       0.09667006      -0.08414068
Al       4.88145715      21.17610395       9.04183325      -0.00519655       0.00295328       0.04861073
Al       4.98164213      23.24335787      11.07627549      -0.01063337       0.01063337      -0.05432740
Al       7.03424500      21.19075500      11.04702850      -0.00548486       0.00548486      -0.03150687
Al       7.04889605      23.34354285       9.04183325      -0.00295328       0.00519655       0.04861073
Al       5.00000000      21.20000000      13.10000000      -0.49138087      -0.24306658      -0.36758888
Al       5.00000000      23.22500000      15.12500000       0.32841771      -0.32841771      -0.33441544
Al       7.02500000      21.20000000      15.12500000       0.32470031      -0.32470031       0.58682513
Al       7.02500000      23.22500000      13.10000000       0.24306658       0.49138087      -0.36758888
Al       9.05000000       5.00000000       5.00000000      -0.03709437      -0.20015927      -0.17378658
Al       9.05000000       7.02500000       7.02500000      -0.05722557       0.06843910       0.54359180
Al      11.07500000       5.00000000       7.02500000      -0.00625328      -0.63516075       0.22523853
Al      11.07500000       7.02500000       5.00000000      -0.00487491       0.33096889      -0.64614750
Al       9.04208355       4.81329968       9.02333887       0.00138695      -0.00459300       0.05000837
Al       9.05246973       6.98629317      11.05981128       0.00099771      -0.00433699      -0.03352758
Al      11.06585694       4.79537514      11.09403822       0.00390215      -0.00385471      -0.04624723
Al      11.06975634       6.96331981       9.06717200       0.00629918      -0.00293672       0.03907748
Al       9.05000000       5.00000000      13.10000000      -0.02761445      -0.61010105      -0.21557675
Al       9.05000000       7.02500000      15.12500000      -0.03891660       0.33057555       0.64282957
Al      11.07500000       5.00000000      15.12500000      -0.00601764      -0.20168202       0.17477174
Al      11.07500000       7.02500000      13.10000000       0.00548609       0.01611636      -0.51357840
Al       9.05000000       9.05000000       5.00000000      -0.03882976      -0.03897840      -0.70919617
Al       9.05000000      11.07500000       7.02500000      -0.10312361       0.02258136       0.40433197
Al      11.07500000       9.05000000       7.02500000      -0.00878594      -0.10308715       0.39469896
Al      11.07500000      11.07500000       5.00000000      -0.00560452      -0.00579490      -0.71057184
Al       9.05218719       9.05383672       9.05145409       0.00372122       0.00595820       0.04183592
Al       9.05667103      11.09888240      11.07643427       0.00476612       0.00693043      -0.03246849
Al      11.07232602       9.02815154      11.07432736       0.00655888       0.00822599      -0.03358066
Al      11.08307406      11.08754894       9.05918950       0.01029903       0.01414873       0.04069698
Al       9.05000000       9.05000000      13.10000000      -0.09711051      -0.07874351      -0.42428229
Al       9.05000000      11.07500000      15.12500000      -0.03777598      -0.00514290       0.70733133
Al      11.07500000       9.05000000      15.12500000      -0.00457822      -0.03826625       0.70513241
Al      11.07500000      11.07500000      13.10000000      -0.00953041       0.02298026      -0.35541830
Al       9.05000000      13.10000000       5.00000000      -0.03905936       0.00290156      -0.71198947
Al       9.05000000      15.12500000       7.02500000      -0.05236638      -0.00119254       0.45611799
Al      11.07500000      13.10000000       7.02500000       0.01090109       0.04421783       0.34387755
Al      11.07500000      15.12500000       5.00000000      -0.00350403      -0.00329918      -0.71139890
Al       9.04029102      13.11142437       9.05834702       0.00825984       0.00203928       0.04028134
Al       9.00432916      15.12549296      11.07776318       0.00888233      -0.00067529      -0.02978595
Al      11.13987541      13.17449060      11.09341330       0.00950127      -0.00160054      -0.02253962
Al      11.10689747      15.12594353       9.08222999       0.02543560      -0.00192519       0.04499848
Al       9.05000000      13.10000000      13.10000000      -0.10069890       0.02159646      -0.40583967
Al       9.05000000      15.12500000      15.12500000      -0.03608398      -0.00334365       0.70296747
Al      11.07500000      13.10000000      15.12500000      -0.01261711      -0.00468134       0.72143950
Al      11.07500000      15.12500000      13.10000000       0.37398286       0.00581726      -0.46452298
Al       9.05000000      17.15000000       5.00000000      -0.03920468       0.00611240      -0.71178370
Al       9.05000000      19.17500000       7.02500000      -0.07388456       0.07388456       0.44184603
Al      11.07500000      17.15000000       7.02500000       0.01733999      -0.01733999       0.35257667
Al      11.07500000      19.17500000       5.00000000      -0.00611240       0.03920468      -0.71178370
Al       9.04782904      17.13958971       9.05858872       0.01082363      -0.00848511       0.04262461
Al       9.07056477      19.15443523      11.07666287       0.00641560      -0.00641560      -0.03258750
Al      11.14491575      17.08008425      11.09240674       0.00457010      -0.00457010      -0.02274454
Al      11.08541029      19.17717096       9.05858872       0.00848511      -0.01082363       0.04262461
Al       9.05000000      17.15000000      13.10000000      -0.08698532      -0.00841357      -0.40902211
Al       9.05000000      19.17500000      15.12500000      -0.03817054       0.03817054       0.70702439
Al      11.07500000      17.15000000      15.12500000      -0.01314004       0.01314004       0.72234139
Al      11.07500000      19.17500000      13.10000000       0.00841357       0.08698532      -0.40902211
Al       9.05000000      21.20000000       5.00000000      -0.04044895      -0.32898624      -0.64540320
Al       9.05000000      23.22500000       7.02500000      -0.02928830       0.60017435       0.22286715
Al      11.07500000      21.20000000       7.02500000       0.00414282      -0.05008765       0.54771627
Al      11.07500000      23.22500000       5.00000000      -0.00668512       0.20421415      -0.17567913
Al       9.05828039      21.23023765       9.06562476       0.00268602       0.00369985       0.04042627
Al       9.04111615      23.41197515      11.10102713       0.00272056       0.00294173      -0.04539569
Al      11.06782606      21.26513146      11.05593825       0.00826559      -0.00031184      -0.03200403
Al      11.06449844      23.43221287       9.02989568       0.00455228       0.00439374       0.05144018
Al       9.05000000      21.20000000      13.10000000      -0.04985766      -0.08453594      -0.55178468
Al       9.05000000      23.22500000      15.12500000      -0.03707092       0.19791008       0.17244292
Al      11.07500000      21.20000000      15.12500000      -0.00510010      -0.33235759       0.64386080
Al      11.07500000      23.22500000      13.10000000      -0.00758424       0.63443550      -0.22432150
Al      13.10000000       5.00000000       5.00000000       0.00323716      -0.20440855      -0.17515910
Al      13.10000000       7.02500000       7.02500000       0.00389358      -0.00160738       0.52472447
Al      15.12500000       5.00000000       7.02500000       0.00945999      -0.64085249       0.23922077
Al      15.12500000       7.02500000       5.00000000      -0.00334351       0.33141860      -0.64632306
Al      13.09778892       4.78958495       9.02892598       0.00285576      -0.00416416       0.04938271
Al      13.09789250       6.95780930      11.05507099       0.00333356      -0.00403976      -0.02935530
Al      15.12698885       4.78966044      11.09601416      -0.00089980      -0.00277304      -0.04511800
Al      15.12802152       6.95652379       9.06899121      -0.00095478      -0.00506411       0.03576720
Al      13.10000000       5.00000000      13.10000000      -0.00933287      -0.63490157      -0.24055505
Al      13.10000000       7.02500000      15.12500000       0.00398285       0.33277921       0.64427444
Al      15.12500000       5.00000000      15.12500000      -0.00300711      -0.20194295       0.17379028
Al      15.12500000       7.02500000      13.10000000      -0.00320767       0.00417493      -0.52531135
Al      13.10000000       9.05000000       5.00000000       0.00363163      -0.03939807      -0.70857730
Al      13.10000000      11.07500000       7.02500000      -0.00285539       0.06490916       0.39541148
Al      15.12500000       9.05000000       7.02500000      -0.00242030      -0.11730947       0.39175586
Al      15.12500000      11.07500000       5.00000000      -0.00267133      -0.00564666      -0.70954608
Al      13.09977240       9.02182104       9.04773709       0.00142864       0.00622531       0.03857773
Al      13.10033169      11.04627517      11.07918890       0.00194981       0.01894361      -0.02985465
Al      15.12788925       9.02031281      11.07442608      -0.00059528       0.00644964      -0.03116833
Al      15.11280884      11.08305199       9.05809820      -0.00288778       0.01885174       0.03901342
Al      13.10000000       9.05000000      13.10000000       0.00423988      -0.18303410      -0.33228442
Al      13.10000000      11.07500000      15.12500000       0.00387487      -0.00316918       0.70007561
Al      15.12500000       9.05000000      15.12500000      -0.00322630      -0.03823454       0.70465327
Al      15.12500000      11.07500000      13.10000000      -0.01534987       0.01483140      -0.34089189
Al      13.10000000      13.10000000       5.00000000       0.00374671       0.00501729      -0.71020241
Al      13.10000000      15.12500000       7.02500000      -0.00550827       0.00550827       0.05510350
Al      15.12500000      13.10000000       7.02500000      -0.04384737       0.04384737       0.33320379
Al      15.12500000      15.12500000       5.00000000      -0.00501729      -0.00374671      -0.71020241
Al      13.09784979      13.14170934       9.08329471       0.00478861       0.01658297       0.04314021
Al      15.05040076      13.17459924      11.09403815      -0.00018946       0.00018946      -0.02073516
Al      15.08329066      15.12715021       9.08329471      -0.01658297      -0.00478861       0.04314021
Al      13.10000000      13.10000000      13.10000000      -0.01162599       0.39827637      -0.44708873
Al      13.10000000      15.12500000      15.12500000       0.00394788      -0.00394788       0.85848191
Al      15.12500000      13.10000000      15.12500000       0.00463156      -0.00463156       0.71938970
Al      15.12500000      15.12500000      13.10000000      -0.39827637       0.01162599      -0.44708873
Al      13.10000000      17.15000000       5.00000000       0.00329918       0.00350403      -0.71139890
Al      13.10000000      19.17500000       7.02500000       0.00119254       0.05236638       0.45611799
Al      15.12500000      17.15000000       7.02500000      -0.04421783      -0.01090109       0.34387755
Al      15.12500000      19.17500000       5.00000000      -0.00290156       0.03905936      -0.71198947
Al      13.09905647      17.11810253       9.08222999       0.00192519      -0.02543560       0.04499848
Al      13.09950704      19.22067084      11.07776318       0.00067529      -0.00888233      -0.02978595
Al      15.05050940      17.08512459      11.09341330       0.00160054      -0.00950127      -0.02253962
Al      15.11357563      19.18470898       9.05834702      -0.00203928      -0.00825984       0.04028134
Al      13.10000000      17.15000000      13.10000000      -0.00581726      -0.37398286      -0.46452298
Al      13.10000000      19.17500000      15.12500000       0.00334365       0.03608398       0.70296747
Al      15.12500000      17.15000000      15.12500000       0.00468134       0.01261711       0.72143950
Al      15.12500000      19.17500000      13.10000000      -0.02159646       0.10069890      -0.40583967
Al      13.10000000      21.20000000       5.00000000       0.00333581      -0.33090569      -0.64732471
Al      13.10000000      23.22500000       7.02500000      -0.01073197       0.64736173       0.23384576
Al      15.12500000      21.20000000       7.02500000      -0.00494275      -0.03836876       0.56092122
Al      15.12500000      23.22500000       5.00000000      -0.00324751       0.20487941      -0.17506773
Al      13.09754363      21.27040009       9.06733696       0.00330086       0.00281950       0.03697939
Al      13.09752981      23.43599056      11.09528512       0.00291280       0.00153238      -0.04445174
Al      15.12950112      21.27192067      11.05399738      -0.00305507       0.00185638      -0.02905603
Al      15.12782978      23.43822832       9.02793091      -0.00156746       0.00286061       0.05025932
Al      13.10000000      21.20000000      13.10000000       0.00292152       0.02584674      -0.50346959
Al      13.10000000      23.22500000      15.12500000       0.00295171       0.20250957       0.17420060
Al      15.12500000      21.20000000      15.12500000      -0.00374527      -0.33282330       0.64439108
Al      15.12500000      23.22500000      13.10000000       0.00860294       0.64033355      -0.23836839
Al      17.15000000       5.00000000       5.00000000       0.00662673      -0.20371005      -0.17581364
Al      17.15000000       7.02500000       7.02500000      -0.00454744       0.03066183       0.52967543
Al      19.17500000       5.00000000       7.02500000       0.02857252      -0.60574701       0.22339333
Al      19.17500000       7.02500000       5.00000000       0.04001979       0.32948494      -0.64463990
Al      17.15928037       4.79416911       9.03075099      -0.00180282      -0.00379810       0.05062426
Al      17.15489976       6.96359263      11.05678470      -0.00446091      -0.00233850      -0.03292064
Al      19.18270763       4.81439580      11.10127835      -0.00072530      -0.00185388      -0.04698189
Al      19.16889101       6.99096440       9.06525288       0.00108614      -0.00504963       0.03822332
Al      17.15000000       5.00000000      13.10000000       0.00610548      -0.63027518      -0.22639834
Al      17.15000000       7.02500000      15.12500000       0.00498897       0.33277677       0.64376329
Al      19.17500000       5.00000000      15.12500000       0.03652113      -0.19748925       0.17248059
Al      19.17500000       7.02500000      13.10000000       0.05382183       0.07138312      -0.54229317
Al      17.15000000       9.05000000       5.00000000       0.00596883      -0.03915427      -0.70905484
Al      17.15000000      11.07500000       7.02500000      -0.00616043       0.00616043       0.35085675
Al      19.17500000       9.05000000       7.02500000       0.09330879      -0.09330879       0.42045157
Al      19.17500000      11.07500000       5.00000000       0.03915427      -0.00596883      -0.70905484
Al      17.14448672       9.04016678       9.05175781      -0.00444020       0.00487906       0.04052496
Al      17.12849665      11.09650335      11.07677421      -0.00884509       0.00884509      -0.03109301
Al      19.16888852       9.05611148      11.07526624      -0.00214989       0.00214989      -0.03441436
Al      19.18483322      11.08051328       9.05175781      -0.00487906       0.00444020       0.04052496
Al      17.15000000       9.05000000      13.10000000       0.00198887      -0.10890111      -0.38250542
Al      17.15000000      11.07500000      15.12500000       0.00519855      -0.00519855       0.70501865
Al      19.17500000       9.05000000      15.12500000       0.03809431      -0.03809431       0.70592823
Al      19.17500000      11.07500000      13.10000000       0.10890111      -0.00198887      -0.38250542
Al      17.15000000      13.10000000       5.00000000       0.00564666       0.00267133      -0.70954608
Al      17.15000000      15.12500000       7.02500000      -0.06490916       0.00285539       0.39541148
Al      19.17500000      13.10000000       7.02500000       0.11730947       0.00242030       0.39175586
Al      19.17500000      15.12500000       5.00000000       0.03939807      -0.00363163      -0.70857730
Al      17.14194801      13.11219116       9.05809820      -0.01885174       0.00288778       0.03901342
Al      17.17872483      15.12466831      11.07918890      -0.01894361      -0.00194981      -0.02985465
Al      19.20468719      13.09711075      11.07442608      -0.00644964       0.00059528      -0.03116833
Al      19.20317896      15.12522760       9.04773709      -0.00622531      -0.00142864       0.03857773
Al      17.15000000      13.10000000      13.10000000      -0.01483140       0.01534987      -0.34089189
Al      17.15000000      15.12500000      15.12500000       0.00316918      -0.00387487       0.70007561
Al      19.17500000      13.10000000      15.12500000       0.03823454       0.00322630       0.70465327
Al      19.17500000      15.12500000      13.10000000       0.18303410      -0.00423988      -0.33228442
Al      17.15000000      17.15000000       5.00000000       0.00579490       0.00560452      -0.71057184
Al      17.15000000      19.17500000       7.02500000      -0.02258136       0.10312361       0.40433197
Al      19.17500000      17.15000000       7.02500000       0.10308715       0.00878594       0.39469896
Al      19.17500000      19.17500000       5.00000000       0.03897840       0.03882976      -0.70919617
Al      17.13745106      17.14192594       9.05918950      -0.01414873      -0.01029903       0.04069698
Al      17.12611760      19.16832897      11.07643427      -0.00693043      -0.00476612      -0.03246849
Al      19.19684846      17.15267398      11.07432736      -0.00822599      -0.00655888      -0.03358066
Al      19.17116328      19.17281281       9.05145409      -0.00595820      -0.00372122       0.04183592
Al      17.15000000      17.15000000      13.10000000      -0.02298026       0.00953041      -0.35541830
Al      17.15000000      19.17500000      15.12500000       0.00514290       0.03777598       0.70733133
Al      19.17500000      17.15000000      15.12500000       0.03826625       0.00457822       0.70513241
Al      19.17500000      19.17500000      13.10000000       0.07874351       0.09711051      -0.42428229
Al      17.15000000      21.20000000       5.00000000       0.00549605      -0.33090815      -0.64743912
Al      17.15000000      23.22500000       7.02500000       0.00795724       0.62188648       0.23602228
Al      19.17500000      21.20000000       7.02500000       0.04984729      -0.07146293       0.54510753
Al      19.17500000      23.22500000       5.00000000       0.03724103       0.19955199      -0.17483041
Al      17.14877028      21.25335605       9.06852634      -0.00679183       0.00171064       0.04003560
Al      17.15990488      23.43125404      11.09358832      -0.00404223       0.00188406      -0.04635175
Al      19.16277609      21.22796809      11.06056118      -0.00206843       0.00470874      -0.03317081
Al      19.18097589      23.40457283       9.02428197      -0.00152953       0.00334124       0.05041764
Al      17.15000000      21.20000000      13.10000000      -0.01313967      -0.04674813      -0.53799617
Al      17.15000000      23.22500000      15.12500000       0.00628888       0.20187845       0.17496111
Al      19.17500000      21.20000000      15.12500000       0.03939403      -0.33062468       0.64371238
Al      19.17500000      23.22500000      13.10000000       0.02638655       0.59785940      -0.22590569
Al      21.20000000       5.00000000       5.00000000      -0.45313198      -0.09677029      -0.08405361
Al      21.20000000       7.02500000       7.02500000      -0.14603731       0.14603731       0.65938573
Al      23.22500000       5.00000000       7.02500000       0.05269723      -0.05269723       0.51967814
Al      23.22500000       7.02500000       5.00000000       0.09677029       0.45313198      -0.08405361
Al      21.17771880       4.87790192       9.04222037       0.00294238      -0.00307784       0.04812612
Al      21.19639434       7.02860566      11.04633490       0.00552652      -0.00552652      -0.03294935
Al      23.24689942       4.97810058      11.07801805       0.00946725      -0.00946725      -0.05599551
Al      23.34709808       7.04728120       9.04222037       0.00307784      -0.00294238       0.04812612
Al      21.20000000       5.00000000      13.10000000      -0.24296853      -0.49729182      -0.36628425
Al      21.20000000       7.02500000      15.12500000      -0.32539258       0.32539258       0.58639851
Al      23.22500000       5.00000000      15.12500000      -0.32783215       0.32783215      -0.33517363
Al      23.22500000       7.02500000      13.10000000       0.49729182       0.24296853      -0.36628425
Al      21.20000000       9.05000000       5.00000000      -0.32948494      -0.04001979      -0.64463990
Al      21.20000000      11.07500000       7.02500000      -0.03066183       0.00454744       0.52967543
Al      23.22500000       9.05000000       7.02500000       0.60574701      -0.02857252       0.22339333
Al      23.22500000      11.07500000       5.00000000       0.20371005      -0.00662673      -0.17581364
Al      21.23403560       9.05610899       9.06525288       0.00504963      -0.00108614       0.03822332
Al      21.26140737      11.07010024      11.05678470       0.00233850       0.00446091      -0.03292064
Al      23.41060420       9.04229237      11.10127835       0.00185388       0.00072530      -0.04698189
Al      23.43083089      11.06571963       9.03075099       0.00379810       0.00180282       0.05062426
Al      21.20000000       9.05000000      13.10000000      -0.07138312      -0.05382183      -0.54229317
Al      21.20000000      11.07500000      15.12500000      -0.33277677      -0.00498897       0.64376329
Al      23.22500000       9.05000000      15.12500000       0.19748925      -0.03652113       0.17248059
Al      23.22500000      11.07500000      13.10000000       0.63027518      -0.00610548      -0.22639834
Al      21.20000000      13.10000000       5.00000000      -0.33141860       0.00334351      -0.64632306
Al      21.20000000      15.12500000       7.02500000       0.00160738      -0.00389358       0.52472447
Al      23.22500000      13.10000000       7.02500000       0.64085249      -0.00945999       0.23922077
Al      23.22500000      15.12500000       5.00000000       0.20440855      -0.00323716      -0.17515910
Al      21.26847621      13.09697848       9.06899121       0.00506411       0.00095478       0.03576720
Al      21.26719070      15.12710750      11.05507099       0.00403976      -0.00333356      -0.02935530
Al      23.43533956      13.09801115      11.09601416       0.00277304       0.00089980      -0.04511800
Al      23.43541505      15.12721108       9.02892598       0.00416416      -0.00285576       0.04938271
Al      21.20000000      13.10000000      13.10000000      -0.00417493       0.00320767      -0.52531135
Al      21.20000000      15.12500000      15.12500000      -0.33277921      -0.00398285       0.64427444
Al      23.22500000      13.10000000      15.12500000       0.20194295       0.00300711       0.17379028
Al      23.22500000      15.12500000      13.10000000       0.63490157       0.00933287      -0.24055505
Al      21.20000000      17.15000000       5.00000000      -0.33096889       0.00487491      -0.64614750
Al      21.20000000      19.17500000       7.02500000      -0.06843910       0.05722557       0.54359180
Al      23.22500000      17.15000000       7.02500000       0.63516075       0.00625328       0.22523853
Al      23.22500000      19.17500000       5.00000000       0.20015927       0.03709437      -0.17378658
Al      21.26168019      17.15524366       9.06717200       0.00293672      -0.00629918       0.03907748
Al      21.23870683      19.17253027      11.05981128       0.00433699      -0.00099771      -0.03352758
Al      23.42962486      17.15914306      11.09403822       0.00385471      -0.00390215      -0.04624723
Al      23.41170032      19.18291645       9.02333887       0.00459300      -0.00138695       0.05000837
Al      21.20000000      17.15000000      13.10000000      -0.01611636      -0.00548609      -0.51357840