299
Lattice="28.224999999999998 0.0 0.0 0.0 28.224999999999998 0.0 0.0 0.0 20.125" Properties=species:S:1:pos:R:3:forces:R:3 energy=-16469.307268407087 pbc="T T T"
Al       5.00000000       5.00000000       5.00000000       0.32604820       0.32674635       0.33257611
Al       5.00000000       7.02500000       7.02500000      -0.49775075       0.24777278       0.37769996
Al       7.02500000       5.00000000       7.02500000       0.24294055      -0.49746180       0.37234618
Al       7.02500000       7.02500000       5.00000000       0.32455420       0.32629310      -0.58589867
Al       4.97776533       4.97749976       9.04846819      -0.01173212      -0.00960795       0.04050592
Al       4.88336491       7.04882852      11.07999182      -0.00349007       0.00124406      -0.01786937
Al       7.04723455       4.87424503      11.08063859      -0.00326135      -0.00234261      -0.01872662
Al       7.02920414       7.02754336       9.08042904      -0.00693924      -0.00165706       0.01340557
Al       5.00000000       5.00000000      13.10000000      -0.04982034      -0.04467839      -0.52560867
Al       5.00000000       7.02500000      15.12500000      -0.09171689       0.45673433       0.08430241
Al       7.02500000       5.00000000      15.12500000       0.45481289      -0.09185152       0.08380176
Al       7.02500000       7.02500000      13.10000000       0.15199842       0.15643401      -0.66359632
Al       5.00000000       9.05000000       5.00000000      -0.19705053      -0.03760568      -0.17340803
Al       5.00000000      11.07500000       7.02500000      -0.61577089      -0.00783634       0.24832278
Al       7.02500000       9.05000000       7.02500000       0.07706759      -0.04708520       0.55229893
Al       7.02500000      11.07500000       5.00000000       0.32956338      -0.00852274      -0.64135323
Al       4.82158512       9.04416000       9.02596455      -0.00139699       0.00632550       0.02809488
Al       4.79471250      11.06460712      11.09147777       0.00376078       0.00843770      -0.02109071
Al       6.99816691       9.06231260      11.05900690      -0.00249450       0.01026774      -0.00579879
Al       6.97302126      11.07612432       9.06995473      -0.00273367       0.00927739       0.01730860
Al       5.00000000       9.05000000      13.10000000      -0.59100054      -0.02446098      -0.23550885
Al       5.00000000      11.07500000      15.12500000      -0.19796005      -0.00675989       0.17203218
Al       7.02500000       9.05000000      15.12500000       0.33236048      -0.03846541       0.63764426
Al       7.02500000      11.07500000      13.10000000       0.05425753       0.01437474      -0.54977486
Al       5.00000000      13.10000000       5.00000000      -0.20459949       0.00209041      -0.17306092
Al       5.00000000      15.12500000       7.02500000      -0.64132607       0.00842607       0.25139148
Al       7.02500000      13.10000000       7.02500000       0.04237935       0.00378749       0.57827861
Al       7.02500000      15.12500000       5.00000000       0.32895020      -0.00203161      -0.64186604
Al       4.78706777      13.09652096       9.03008100       0.00437404       0.00459198       0.02906787
Al       4.78913640      15.12751964      11.09275309       0.00798246      -0.00487512      -0.01784932
Al       6.95450987      13.09508805      11.05180544      -0.00557810       0.00587919       0.00315031
Al       6.95595467      15.12710475       9.06918659      -0.00672184      -0.00324203       0.01266913
Al       5.00000000      13.10000000      13.10000000      -0.63090970      -0.00815188      -0.25532989
Al       5.00000000      15.12500000      15.12500000      -0.19892990      -0.00216852       0.17099026
Al       7.02500000      13.10000000      15.12500000       0.33260120       0.00310092       0.63684017
Al       7.02500000      15.12500000      13.10000000      -0.01983431      -0.00378219      -0.51929380
Al       5.00000000      17.15000000       5.00000000      -0.20283563       0.00798150      -0.17401869
Al       5.00000000      19.17500000       7.02500000      -0.59585222       0.02732148       0.23122881
Al       7.02500000      17.15000000       7.02500000       0.05597793      -0.00551114       0.56139363
Al       7.02500000      19.17500000       5.00000000       0.33037797       0.04157505      -0.64062630
Al       4.79308884      17.16053774       9.03151867       0.00276165      -0.00772276       0.03226215
Al       4.81336720      19.18347537      11.09916688       0.00412716      -0.00707586      -0.02052234
Al       6.96083691      17.15663834      11.05418006       0.00224320      -0.00807842      -0.00358204
Al       6.99535426      19.16630033       9.06674177       0.00152377      -0.00812132       0.02245469
Al       5.00000000      17.15000000      13.10000000      -0.62512582       0.00451461      -0.23544038
Al       5.00000000      19.17500000      15.12500000      -0.19241075       0.03639081       0.17054110
Al       7.02500000      17.15000000      15.12500000       0.33399825       0.00750467       0.63603179
Al       7.02500000      19.17500000      13.10000000       0.09313699       0.04499810      -0.55861155
Al       5.00000000      21.20000000       5.00000000      -0.09443659      -0.45425423      -0.08510953
Al       5.00000000      23.22500000       7.02500000      -0.04904352       0.04904352       0.52739422
Al       7.02500000      21.20000000       7.02500000       0.15703287      -0.15703287       0.66233263
Al       7.02500000      23.22500000       5.00000000       0.45425423       0.09443659      -0.08510953
Al       4.88149764      21.17601437       9.04384719      -0.00134189      -0.00032327       0.02716630
Al       4.98107950      23.24392050      11.07484029      -0.00707226       0.00707226      -0.03479173
Al       7.03455930      21.19044070      11.04554820      -0.00072082       0.00072082      -0.00534302
Al       7.04898563      23.34350236       9.04384719       0.00032327       0.00134189       0.02716630
Al       5.00000000      21.20000000      13.10000000      -0.48624553      -0.24810362      -0.37338021
Al       5.00000000      23.22500000      15.12500000       0.32986216      -0.32986216      -0.33270261
Al       7.02500000      21.20000000      15.12500000       0.32885812      -0.32885812       0.58311644
Al       7.02500000      23.22500000      13.10000000       0.24810362       0.48624553      -0.37338021
Al       9.05000000       5.00000000       5.00000000      -0.03868835      -0.19777061      -0.17364549
Al       9.05000000       7.02500000       7.02500000      -0.05621733       0.07532815       0.54894966
Al      11.07500000       5.00000000       7.02500000      -0.00559125      -0.63040457       0.23350144
Al      11.07500000       7.02500000       5.00000000      -0.00862031       0.33060995      -0.64184855
Al       9.04283956       4.81373103       9.02478285       0.00166818      -0.00229947       0.02787897
Al       9.05308535       6.98689228      11.05832171       0.00333715       0.00186463      -0.00712477
Al      11.06570440       4.79584239      11.09209610       0.00593813       0.00051752      -0.02209876
Al      11.07004186       6.96436550       9.06849103       0.00559640      -0.00181548       0.01584711
Al       9.05000000       5.00000000      13.10000000      -0.02717281      -0.60435143      -0.22221898
Al       9.05000000       7.02500000      15.12500000      -0.04128827       0.33447209       0.63817437
Al      11.07500000       5.00000000      15.12500000      -0.00805451      -0.19940474       0.17435320
Al      11.07500000       7.02500000      13.10000000       0.00442775       0.02497499      -0.52356652
Al       9.05000000       9.05000000       5.00000000      -0.04396992      -0.04194873      -0.70191852
Al       9.05000000      11.07500000       7.02500000      -0.10524269       0.02082139       0.41934225
Al      11.07500000       9.05000000       7.02500000      -0.01199307      -0.10302157       0.40780618
Al      11.07500000      11.07500000       5.00000000      -0.01360805      -0.01204436      -0.70401537
Al       9.05306177       9.05420633       9.05247654       0.00258554       0.01127564       0.02289839
Al       9.05764485      11.09909296      11.07468858       0.00093689       0.00547567      -0.00389587
Al      11.07289890       9.02883418      11.07267067       0.00019893       0.00995340      -0.00601397
Al      11.08359446      11.08766679       9.06064178       0.00300793       0.01342103       0.01966547
Al       9.05000000       9.05000000      13.10000000      -0.09606185      -0.07383843      -0.43382481
Al       9.05000000      11.07500000      15.12500000      -0.04408347      -0.00808325       0.69787117
Al      11.07500000       9.05000000      15.12500000      -0.01054536      -0.04112184       0.69712280
Al      11.07500000      11.07500000      13.10000000      -0.01651087       0.01920797      -0.37195414
Al       9.05000000      13.10000000       5.00000000      -0.04719320       0.00088391      -0.70475089
Al       9.05000000      15.12500000       7.02500000      -0.05500596      -0.00067767       0.47564714
Al      11.07500000      13.10000000       7.02500000       0.00450164       0.04254374       0.36748504
Al      11.07500000      15.12500000       5.00000000      -0.01221112       0.00057671      -0.70523503
Al       9.04136304      13.11106610       9.05971545       0.00424475       0.00451910       0.01994573
Al       9.00526690      15.12501161      11.07609947       0.00567849       0.00215368      -0.00187099
Al      11.14027263      13.17404174      11.09140960       0.00001370       0.00024449       0.00799506
Al      11.10751988      15.12552632       9.08398694       0.02235475       0.00205632       0.02632227
Al       9.05000000      13.10000000      13.10000000      -0.10531138       0.01996543      -0.42200847
Al       9.05000000      15.12500000      15.12500000      -0.04407167      -0.00048980       0.69392976
Al      11.07500000      13.10000000      15.12500000      -0.02297929      -0.00717130       0.71507140
Al      11.07500000      15.12500000      13.10000000       0.36353195       0.00857251      -0.48559209
Al       9.05000000      17.15000000       5.00000000      -0.04486778       0.01099745      -0.70374160
Al       9.05000000      19.17500000       7.02500000      -0.07113357       0.07113357       0.45475270
Al      11.07500000      17.15000000       7.02500000       0.01381615      -0.01381615       0.37472588
Al      11.07500000      19.17500000       5.00000000      -0.01099745       0.04486778      -0.70374160
Al       9.04870311      17.13875589       9.05992544       0.01076837      -0.00317488       0.02467608
Al       9.07123313      19.15376687      11.07528227       0.00894845      -0.00894845      -0.00831944
Al      11.14557284      17.07942716      11.09040409      -0.00280909       0.00280909       0.00746640
Al      11.08624411      19.17629689       9.05992544       0.00317488      -0.01076837       0.02467608
Al       9.05000000      17.15000000      13.10000000      -0.08763819      -0.00723786      -0.42347643
Al       9.05000000      19.17500000      15.12500000      -0.04059909       0.04059909       0.69721675
Al      11.07500000      17.15000000      15.12500000      -0.02115430       0.02115430       0.71363720
Al      11.07500000      19.17500000      13.10000000       0.00723786       0.08763819      -0.42347643
Al       9.05000000      21.20000000       5.00000000      -0.04157505      -0.33037797      -0.64062630
Al       9.05000000      23.22500000       7.02500000      -0.02732148       0.59585222       0.23122881
Al      11.07500000      21.20000000       7.02500000       0.00551114      -0.05597793       0.56139363
Al      11.07500000      23.22500000       5.00000000      -0.00798150       0.20283563      -0.17401869
Al       9.05869967      21.22964574       9.06674177       0.00812132      -0.00152377       0.02245469
Al       9.04152463      23.41163280      11.09916688       0.00707586      -0.00412716      -0.02052234
Al      11.06836166      21.26416309      11.05418006       0.00807842      -0.00224320      -0.00358204
Al      11.06446226      23.43191116       9.03151867       0.00772276      -0.00276165       0.03226215
Al       9.05000000      21.20000000      13.10000000      -0.04499810      -0.09313699      -0.55861155
Al       9.05000000      23.22500000      15.12500000      -0.03639081       0.19241075       0.17054110
Al      11.07500000      21.20000000      15.12500000      -0.00750467      -0.33399825       0.63603179
Al      11.07500000      23.22500000      13.10000000      -0.00451461       0.62512582      -0.23544038
Al      13.10000000       5.00000000       5.00000000       0.00330538      -0.20492198      -0.17469306
Al      13.10000000       7.02500000       7.02500000       0.00425119       0.00285379       0.53870923
Al      15.12500000       5.00000000       7.02500000       0.01008844      -0.63578759       0.25325393
Al      15.12500000       7.02500000       5.00000000       0.00059615       0.32941172      -0.64176569
Al      13.09719012       4.78963740       9.03084488       0.00676688       0.00134186       0.02707177
Al      13.09761082       6.95909781      11.05292295       0.00602168      -0.00657785       0.00073889
Al      15.12682018       4.78972925      11.09344296       0.00036892       0.00400264      -0.01976498
Al      15.12759876       6.95789126       9.07063322       0.00167189      -0.00886996       0.00974413
Al      13.10000000       5.00000000      13.10000000      -0.00825649      -0.62872339      -0.25522969
Al      13.10000000       7.02500000      15.12500000       0.00250401       0.33323642       0.64009842
Al      15.12500000       5.00000000      15.12500000      -0.00100092      -0.20095774       0.17314490
Al      15.12500000       7.02500000      13.10000000      -0.00219342       0.01048356      -0.54104163
Al      13.10000000       9.05000000       5.00000000       0.00183435      -0.04658438      -0.70277441
Al      13.10000000      11.07500000       7.02500000      -0.00597758       0.06004215       0.41678713
Al      15.12500000       9.05000000       7.02500000       0.00050903      -0.12050076       0.40760651
Al      15.12500000      11.07500000       5.00000000       0.00167610      -0.01448696      -0.70480523
Al      13.09964763       9.02278574       9.04901433       0.00177779       0.00372860       0.01634105
Al      13.10022496      11.04655490      11.07726317       0.00036738       0.01487331      -0.00184672
Al      15.12746525       9.02133959      11.07259673       0.00276845       0.00354336      -0.00319892
Al      15.11266938      11.08345791       9.05958648      -0.00121809       0.01396836       0.01743645
Al      13.10000000       9.05000000      13.10000000       0.00201263      -0.18345437      -0.34777145
Al      13.10000000      11.07500000      15.12500000      -0.00052687      -0.01062515       0.69464352
Al      15.12500000       9.05000000      15.12500000      -0.00056333      -0.04389184       0.69799038
Al      15.12500000      11.07500000      13.10000000      -0.01260096       0.00870196      -0.36132632
Al      13.10000000      13.10000000       5.00000000      -0.00067236       0.00215093      -0.70692455
Al      13.10000000      15.12500000       7.02500000      -0.00958685       0.00958685       0.08329735
Al      15.12500000      13.10000000       7.02500000      -0.04128250       0.04128250       0.35894751
Al      15.12500000      15.12500000       5.00000000      -0.00215093       0.00067236      -0.70692455
Al      13.09802796      13.14150436       9.08525647       0.00000892       0.02227213       0.02196311
Al      15.05045946      13.17454054      11.09177261       0.00143309      -0.00143309       0.01122588
Al      15.08349564      15.12697204       9.08525647      -0.02227213      -0.00000892       0.02196311
Al      13.10000000      13.10000000      13.10000000      -0.01650285       0.39425791      -0.47163372
Al      13.10000000      15.12500000      15.12500000      -0.00132901       0.00132901       0.85444069
Al      15.12500000      13.10000000      15.12500000       0.00802772      -0.00802772       0.71659913
Al      15.12500000      15.12500000      13.10000000      -0.39425791       0.01650285      -0.47163372
Al      13.10000000      17.15000000       5.00000000      -0.00057671       0.01221112      -0.70523503
Al      13.10000000      19.17500000       7.02500000       0.00067767       0.05500596       0.47564714
Al      15.12500000      17.15000000       7.02500000      -0.04254374      -0.00450164       0.36748504
Al      15.12500000      19.17500000       5.00000000      -0.00088391       0.04719320      -0.70475089
Al      13.09947368      17.11748012       9.08398694      -0.00205632      -0.02235475       0.02632227
Al      13.09998839      19.21973310      11.07609947      -0.00215368      -0.00567849      -0.00187099
Al      15.05095826      17.08472737      11.09140960      -0.00024449      -0.00001370       0.00799506
Al      15.11393390      19.18363696       9.05971545      -0.00451910      -0.00424475       0.01994573
Al      13.10000000      17.15000000      13.10000000      -0.00857251      -0.36353195      -0.48559209
Al      13.10000000      19.17500000      15.12500000       0.00048980       0.04407167       0.69392976
Al      15.12500000      17.15000000      15.12500000       0.00717130       0.02297929       0.71507140
Al      15.12500000      19.17500000      13.10000000      -0.01996543       0.10531138      -0.42200847
Al      13.10000000      21.20000000       5.00000000       0.00203161      -0.32895020      -0.64186604
Al      13.10000000      23.22500000       7.02500000      -0.00842607       0.64132607       0.25139148
Al      15.12500000      21.20000000       7.02500000      -0.00378749      -0.04237935       0.57827861
Al      15.12500000      23.22500000       5.00000000      -0.00209041       0.20459949      -0.17306092
Al      13.09789525      21.26904533       9.06918659       0.00324203       0.00672184       0.01266913
Al      13.09748036      23.43586360      11.09275309       0.00487512      -0.00798246      -0.01784932
Al      15.12991195      21.27049013      11.05180544      -0.00587919       0.00557810       0.00315031
Al      15.12847904      23.43793223       9.03008100      -0.00459198      -0.00437404       0.02906787
Al      13.10000000      21.20000000      13.10000000       0.00378219       0.01983431      -0.51929380
Al      13.10000000      23.22500000      15.12500000       0.00216852       0.19892990       0.17099026
Al      15.12500000      21.20000000      15.12500000      -0.00310092      -0.33260120       0.63684017
Al      15.12500000      23.22500000      13.10000000       0.00815188       0.63090970      -0.25532989
Al      17.15000000       5.00000000       5.00000000       0.01053590      -0.20173377      -0.17387901
Al      17.15000000       7.02500000       7.02500000      -0.00137109       0.03642535       0.54117978
Al      19.17500000       5.00000000       7.02500000       0.02973999      -0.59948368       0.23259545
Al      19.17500000       7.02500000       5.00000000       0.04368164       0.33051395      -0.63818099
Al      17.15887502       4.79461203       9.03225011       0.00033031       0.00128508       0.02871425
Al      17.15412088       6.96469816      11.05478418      -0.00020355      -0.00161768      -0.00501342
Al      19.18173616       4.81492346      11.09912598       0.00052154       0.00277228      -0.02188346
Al      19.16820663       6.99175985       9.06653657       0.00022909      -0.00205345       0.01326918
Al      17.15000000       5.00000000      13.10000000       0.00610415      -0.62328813      -0.23851487
Al      17.15000000       7.02500000      15.12500000       0.00962953       0.33339840       0.63837196
Al      19.17500000       5.00000000      15.12500000       0.03827977      -0.19336795       0.17102486
Al      19.17500000       7.02500000      13.10000000       0.05292716       0.07851955      -0.55280979
Al      17.15000000       9.05000000       5.00000000       0.01342657      -0.04608270      -0.70108830
Al      17.15000000      11.07500000       7.02500000      -0.00022952       0.00022952       0.36854171
Al      19.17500000       9.05000000       7.02500000       0.09370882      -0.09370882       0.43190826
Al      19.17500000      11.07500000       5.00000000       0.04608270      -0.01342657      -0.70108830
Al      17.14360500       9.04115240       9.05298536       0.00408246       0.00182730       0.01834960
Al      17.12789646      11.09710354      11.07465649      -0.00198630       0.00198630      -0.00181666
Al      19.16805922       9.05694078      11.07349188      -0.00178411       0.00178411      -0.00904216
Al      19.18384760      11.08139500       9.05298536      -0.00182730      -0.00408246       0.01834960
Al      17.15000000       9.05000000      13.10000000       0.00461379      -0.10878712      -0.39822960
Al      17.15000000      11.07500000      15.12500000       0.01198437      -0.01198437       0.69805632
Al      19.17500000       9.05000000      15.12500000       0.04196986      -0.04196986       0.69808094
Al      19.17500000      11.07500000      13.10000000       0.10878712      -0.00461379      -0.39822960
Al      17.15000000      13.10000000       5.00000000       0.01448696      -0.00167610      -0.70480523
Al      17.15000000      15.12500000       7.02500000      -0.06004215       0.00597758       0.41678713
Al      19.17500000      13.10000000       7.02500000       0.12050076      -0.00050903       0.40760651
Al      19.17500000      15.12500000       5.00000000       0.04658438      -0.00183435      -0.70277441
Al      17.14154209      13.11233062       9.05958648      -0.01396836       0.00121809       0.01743645
Al      17.17844510      15.12477504      11.07726317      -0.01487331      -0.00036738      -0.00184672
Al      19.20366041      13.09753475      11.07259673      -0.00354336      -0.00276845      -0.00319892
Al      19.20221426      15.12535237       9.04901433      -0.00372860      -0.00177779       0.01634105
Al      17.15000000      13.10000000      13.10000000      -0.00870196       0.01260096      -0.36132632
Al      17.15000000      15.12500000      15.12500000       0.01062515       0.00052687       0.69464352
Al      19.17500000      13.10000000      15.12500000       0.04389184       0.00056333       0.69799038
Al      19.17500000      15.12500000      13.10000000       0.18345437      -0.00201263      -0.34777145
Al      17.15000000      17.15000000       5.00000000       0.01204436       0.01360805      -0.70401537
Al      17.15000000      19.17500000       7.02500000      -0.02082139       0.10524269       0.41934225
Al      19.17500000      17.15000000       7.02500000       0.10302157       0.01199307       0.40780618
Al      19.17500000      19.17500000       5.00000000       0.04194873       0.04396992      -0.70191852
Al      17.13733321      17.14140554       9.06064178      -0.01342103      -0.00300793       0.01966547
Al      17.12590704      19.16735515      11.07468858      -0.00547567      -0.00093689      -0.00389587
Al      19.19616582      17.15210110      11.07267067      -0.00995340      -0.00019893      -0.00601397
Al      19.17079367      19.17193823       9.05247654      -0.01127564      -0.00258554       0.02289839
Al      17.15000000      17.15000000      13.10000000      -0.01920797       0.01651087      -0.37195414
Al      17.15000000      19.17500000      15.12500000       0.00808325       0.04408347       0.69787117
Al      19.17500000      17.15000000      15.12500000       0.04112184       0.01054536       0.69712280
Al      19.17500000      19.17500000      13.10000000       0.07383843       0.09606185      -0.43382481
Al      17.15000000      21.20000000       5.00000000       0.00852274      -0.32956338      -0.64135323
Al      17.15000000      23.22500000       7.02500000       0.00783634       0.61577089       0.24832278
Al      19.17500000      21.20000000       7.02500000       0.04708520      -0.07706759       0.55229893
Al      19.17500000      23.22500000       5.00000000       0.03760568       0.19705053      -0.17340803
Al      17.14887568      21.25197874       9.06995473      -0.00927739       0.00273367       0.01730860
Al      17.16039288      23.43028750      11.09147777      -0.00843770      -0.00376078      -0.02109071
Al      19.16268740      21.22683309      11.05900690      -0.01026774       0.00249450      -0.00579879
Al      19.18084000      23.40341488       9.02596455      -0.00632550       0.00139699       0.02809488
Al      17.15000000      21.20000000      13.10000000      -0.01437474      -0.05425753      -0.54977486
Al      17.15000000      23.22500000      15.12500000       0.00675989       0.19796005       0.17203218
Al      19.17500000      21.20000000      15.12500000       0.03846541      -0.33236048       0.63764426
Al      19.17500000      23.22500000      13.10000000       0.02446098       0.59100054      -0.23550885
Al      21.20000000       5.00000000       5.00000000      -0.45424136      -0.09239804      -0.08301500
Al      21.20000000       7.02500000       7.02500000      -0.15083877       0.15083877       0.66684355
Al      23.22500000       5.00000000       7.02500000       0.04745539      -0.04745539       0.52711754
Al      23.22500000       7.02500000       5.00000000       0.09239804       0.45424136      -0.08301500
Al      21.17730474       4.87820422       9.04457942       0.00256704      -0.00059670       0.02219067
Al      21.19584696       7.02915304      11.04433102       0.00374821      -0.00374821      -0.00364910
Al      23.24743235       4.97756765      11.07657429       0.00740107      -0.00740107      -0.03794751
Al      23.34679578       7.04769526       9.04457942       0.00059670      -0.00256704       0.02219067
Al      21.20000000       5.00000000      13.10000000      -0.24752365      -0.49187344      -0.37639229
Al      21.20000000       7.02500000      15.12500000      -0.32752844       0.32752844       0.58267231
Al      23.22500000       5.00000000      15.12500000      -0.32898939       0.32898939      -0.33450986
Al      23.22500000       7.02500000      13.10000000       0.49187344       0.24752365      -0.37639229
Al      21.20000000       9.05000000       5.00000000      -0.33051395      -0.04368164      -0.63818099
Al      21.20000000      11.07500000       7.02500000      -0.03642535       0.00137109       0.54117978
Al      23.22500000       9.05000000       7.02500000       0.59948368      -0.02973999       0.23259545
Al      23.22500000      11.07500000       5.00000000       0.20173377      -0.01053590      -0.17387901
Al      21.23324015       9.05679337       9.06653657       0.00205345      -0.00022909       0.01326918
Al      21.26030184      11.07087912      11.05478418       0.00161768       0.00020355      -0.00501342
Al      23.41007654       9.04326384      11.09912598      -0.00277228      -0.00052154      -0.02188346
Al      23.43038797      11.06612498       9.03225011      -0.00128508      -0.00033031       0.02871425
Al      21.20000000       9.05000000      13.10000000      -0.07851955      -0.05292716      -0.55280979
Al      21.20000000      11.07500000      15.12500000      -0.33339840      -0.00962953       0.63837196
Al      23.22500000       9.05000000      15.12500000       0.19336795      -0.03827977       0.17102486
Al      23.22500000      11.07500000      13.10000000       0.62328813      -0.00610415      -0.23851487
Al      21.20000000      13.10000000       5.00000000      -0.32941172      -0.00059615      -0.64176569
Al      21.20000000      15.12500000       7.02500000      -0.00285379      -0.00425119       0.53870923
Al      23.22500000      13.10000000       7.02500000       0.63578759      -0.01008844       0.25325393
Al      23.22500000      15.12500000       5.00000000       0.20492198      -0.00330538      -0.17469306
Al      21.26710874      13.09740124       9.07063322       0.00886996      -0.00167189       0.00974413
Al      21.26590219      15.12738918      11.05292295       0.00657785      -0.00602168       0.00073889
Al      23.43527075      13.09817982      11.09344296      -0.00400264      -0.00036892      -0.01976498
Al      23.43536260      15.12780988       9.03084488      -0.00134186      -0.00676688       0.02707177
Al      21.20000000      13.10000000      13.10000000      -0.01048356       0.00219342      -0.54104163
Al      21.20000000      15.12500000      15.12500000      -0.33323642      -0.00250401       0.64009842
Al      23.22500000      13.10000000      15.12500000       0.20095774       0.00100092       0.17314490
Al      23.22500000      15.12500000      13.10000000       0.62872339       0.00825649      -0.25522969
Al      21.20000000      17.15000000       5.00000000      -0.33060995       0.00862031      -0.64184855
Al      21.20000000      19.17500000       7.02500000      -0.07532815       0.05621733       0.54894966
Al      23.22500000      17.15000000       7.02500000       0.63040457       0.00559125       0.23350144
Al      23.22500000      19.17500000       5.00000000       0.19777061       0.03868835      -0.17364549
Al      21.26063450      17.15495814       9.06849103       0.00181548      -0.00559640       0.01584711
Al      21.23810772      19.17191465      11.05832171      -0.00186463      -0.00333715      -0.00712477
Al      23.42915761      17.15929560      11.09209610      -0.00051752      -0.00593813      -0.02209876
Al      23.41126897      19.18216044       9.02478285       0.00229947      -0.00166818       0.02787897
Al      21.20000000      17.15000000      13.10000000      -0.02497499      -0.00442775      -0.52356652