299
Lattice="28.224999999999998 0.0 0.0 0.0 28.224999999999998 0.0 0.0 0.0 20.125" Properties=species:S:1:pos:R:3:forces:R:3 energy=-16469.307484108904 pbc="T T T"
Al       5.00000000       5.00000000       5.00000000       0.33303774       0.33337253       0.33953938
Al       5.00000000       7.02500000       7.02500000      -0.48242013       0.23266292       0.38956949
Al       7.02500000       5.00000000       7.02500000       0.22735371      -0.47995355       0.38898670
Al       7.02500000       7.02500000       5.00000000       0.31748104       0.31788169      -0.55656400
Al       4.97812463       4.97911618       9.06197370      -0.00638339      -0.00570722       0.01209571
Al       4.87688745       7.05264406      11.08113002       0.01278274      -0.00975386      -0.02163100
Al       7.04908724       4.87112479      11.08126710      -0.00849087       0.00633234      -0.02112765
Al       7.02703455       7.02776749       9.08419573      -0.00853408      -0.01196061      -0.02238814
Al       5.00000000       5.00000000      13.10000000      -0.04482207      -0.03889881      -0.53282785
Al       5.00000000       7.02500000      15.12500000      -0.09299065       0.44981215       0.06591987
Al       7.02500000       5.00000000      15.12500000       0.44976900      -0.09324126       0.06502566
Al       7.02500000       7.02500000      13.10000000       0.14623759       0.15278013      -0.68038769
Al       5.00000000       9.05000000       5.00000000      -0.19784994      -0.04309501      -0.15271617
Al       5.00000000      11.07500000       7.02500000      -0.60398932      -0.00742120       0.23963887
Al       7.02500000       9.05000000       7.02500000       0.07463108      -0.05617723       0.56458237
Al       7.02500000      11.07500000       5.00000000       0.31729300      -0.01463508      -0.60883237
Al       4.81651196       9.04614417       9.02649659       0.00960759      -0.00658165       0.02708538
Al       4.79481146      11.06634614      11.08933190      -0.01067500      -0.00309217      -0.02493601
Al       6.99658880       9.06389695      11.05557538      -0.01163132      -0.00612523       0.02750298
Al       6.97330312      11.07808492       9.07117367      -0.01503073      -0.00861760      -0.01804287
Al       5.00000000       9.05000000      13.10000000      -0.58042638      -0.01882292      -0.22886388
Al       5.00000000      11.07500000      15.12500000      -0.20713853      -0.01355837       0.15478413
Al       7.02500000       9.05000000      15.12500000       0.31802529      -0.05083480       0.61000097
Al       7.02500000      11.07500000      13.10000000       0.04972255       0.00409470      -0.55620876
Al       5.00000000      13.10000000       5.00000000      -0.20864919      -0.00010035      -0.15207059
Al       5.00000000      15.12500000       7.02500000      -0.63287981       0.01061124       0.23991170
Al       7.02500000      13.10000000       7.02500000       0.04585447       0.00114824       0.56708751
Al       7.02500000      15.12500000       5.00000000       0.31580335      -0.00028872      -0.60948617
Al       4.79112616      13.09765408       9.03106706      -0.02467227      -0.00236035       0.02549572
Al       4.79393384      15.12593968      11.09142714      -0.02671859       0.00341469      -0.02520933
Al       6.95457627      13.09551722      11.05158548      -0.01183543      -0.00273196       0.01688820
Al       6.95655600      15.12639256       9.06967518      -0.01594516       0.00333422      -0.01798488
Al       5.00000000      13.10000000      13.10000000      -0.62997193      -0.01242077      -0.24877680
Al       5.00000000      15.12500000      15.12500000      -0.20978288      -0.00033294       0.15401215
Al       7.02500000      13.10000000      15.12500000       0.31771300      -0.00006074       0.60934003
Al       7.02500000      15.12500000      13.10000000      -0.02313164      -0.00069254      -0.51322840
Al       5.00000000      17.15000000       5.00000000      -0.20592691       0.01249768      -0.15316031
Al       5.00000000      19.17500000       7.02500000      -0.58076373       0.02200352       0.22438571
Al       7.02500000      17.15000000       7.02500000       0.05464998       0.00197093       0.56083650
Al       7.02500000      19.17500000       5.00000000       0.31852939       0.05035809      -0.60878029
Al       4.79388763      17.15854114       9.03339091      -0.01314413       0.00404978       0.02579165
Al       4.80913221      19.18218545      11.09798902       0.00864278       0.00413674      -0.02725217
Al       6.96022298      17.15573080      11.05243314      -0.00922728       0.00390731       0.02167846
Al       6.99469382      19.16499891       9.06981913      -0.01174586       0.00637317      -0.02533212
Al       5.00000000      17.15000000      13.10000000      -0.62180096       0.00558857      -0.23456276
Al       5.00000000      19.17500000      15.12500000      -0.19988918       0.04349407       0.15325840
Al       7.02500000      17.15000000      15.12500000       0.31779868       0.01348584       0.60898097
Al       7.02500000      19.17500000      13.10000000       0.08499129       0.05754309      -0.57740396
Al       5.00000000      21.20000000       5.00000000      -0.09164417      -0.45073505      -0.06526826
Al       5.00000000      23.22500000       7.02500000      -0.04067158       0.04067158       0.53279313
Al       7.02500000      21.20000000       7.02500000       0.15518600      -0.15518600       0.67328873
Al       7.02500000      23.22500000       5.00000000       0.45073505       0.09164417      -0.06526826
Al       4.87732972      21.17330446       9.04368033       0.01008486       0.00763342       0.01874025
Al       4.98149674      23.24350326      11.06262432      -0.00376970       0.00376970      -0.01479560
Al       7.03379659      21.19120341      11.04134535      -0.01053432       0.01053432       0.02380348
Al       7.05169554      23.34767028       9.04368033      -0.00763342      -0.01008486       0.01874025
Al       5.00000000      21.20000000      13.10000000      -0.47459703      -0.23114888      -0.39166821
Al       5.00000000      23.22500000      15.12500000       0.33254443      -0.33254443      -0.33806901
Al       7.02500000      21.20000000      15.12500000       0.31666641      -0.31666641       0.55849931
Al       7.02500000      23.22500000      13.10000000       0.23114888       0.47459703      -0.39166821
Al       9.05000000       5.00000000       5.00000000      -0.04281819      -0.19818446      -0.15195325
Al       9.05000000       7.02500000       7.02500000      -0.06600529       0.07316306       0.56365551
Al      11.07500000       5.00000000       7.02500000      -0.00459935      -0.61939625       0.23037337
Al      11.07500000       7.02500000       5.00000000      -0.01331638       0.31792625      -0.60741661
Al       9.04356401       4.81068496       9.02590421      -0.00690821       0.00363215       0.02784761
Al       9.05315749       6.98563048      11.05480064      -0.00376618      -0.00731776       0.02743351
Al      11.06795690       4.79755530      11.09002644      -0.00747087      -0.01607978      -0.02663386
Al      11.07108716       6.96392814       9.06989727      -0.00460159      -0.01046634      -0.02022856
Al       9.05000000       5.00000000      13.10000000      -0.02123341      -0.59400762      -0.22188311
Al       9.05000000       7.02500000      15.12500000      -0.05032260       0.31808075       0.60911381
Al      11.07500000       5.00000000      15.12500000      -0.01266389      -0.20677117       0.15477498
Al      11.07500000       7.02500000      13.10000000      -0.00389599       0.01911609      -0.53136699
Al       9.05000000       9.05000000       5.00000000      -0.05198015      -0.05218106      -0.66834105
Al       9.05000000      11.07500000       7.02500000      -0.10572953       0.01735412       0.43010415
Al      11.07500000       9.05000000       7.02500000      -0.01432310      -0.10839858       0.41940331
Al      11.07500000      11.07500000       5.00000000      -0.01715257      -0.01831921      -0.66867494
Al       9.05420126       9.05567665       9.05650672      -0.01027091      -0.00713410      -0.03890757
Al       9.05925198      11.10173235      11.07191452      -0.01180556      -0.01070323       0.03402424
Al      11.07432565       9.02881081      11.06960565      -0.00840392      -0.00307166       0.03507328
Al      11.08698544      11.09098549       9.06399472      -0.01485788      -0.00633336      -0.03345989
Al       9.05000000       9.05000000      13.10000000      -0.10487131      -0.08702720      -0.45816107
Al       9.05000000      11.07500000      15.12500000      -0.05289774      -0.01554183       0.66917896
Al      11.07500000       9.05000000      15.12500000      -0.01453273      -0.05318561       0.66674766
Al      11.07500000      11.07500000      13.10000000      -0.01960251       0.01218225      -0.38155278
Al       9.05000000      13.10000000       5.00000000      -0.05590540      -0.00220354      -0.67063234
Al       9.05000000      15.12500000       7.02500000      -0.05807159      -0.00007778       0.46981435
Al      11.07500000      13.10000000       7.02500000       0.00433331       0.04169566       0.36144186
Al      11.07500000      15.12500000       5.00000000      -0.01469835       0.00057821      -0.66770939
Al       9.04265063      13.11349796       9.06282681      -0.00616644      -0.01154460      -0.03191439
Al       9.00564835      15.12428619      11.07513307      -0.00500236       0.00527031       0.02377633
Al      11.14534553      13.17799261      11.09037807      -0.01757474      -0.01360230       0.02889463
Al      11.10970440      15.12438281       9.08484065       0.01894607       0.00678485      -0.01662680
Al       9.05000000      13.10000000      13.10000000      -0.10721365       0.01569424      -0.42610367
Al       9.05000000      15.12500000      15.12500000      -0.05351304       0.00024271       0.66536270
Al      11.07500000      13.10000000      15.12500000      -0.02692028      -0.01179891       0.68541033
Al      11.07500000      15.12500000      13.10000000       0.35715014       0.00882891      -0.47177026
Al       9.05000000      17.15000000       5.00000000      -0.05518532       0.01668971      -0.67104426
Al       9.05000000      19.17500000       7.02500000      -0.07838324       0.07838324       0.47048413
Al      11.07500000      17.15000000       7.02500000       0.01223261      -0.01223261       0.37587699
Al      11.07500000      19.17500000       5.00000000      -0.01668971       0.05518532      -0.67104426
Al       9.05024807      17.13610467       9.06362024      -0.00404474       0.01288065      -0.03403815
Al       9.07258696      19.15241304      11.07125480      -0.00765837       0.00765837       0.03997693
Al      11.14929788      17.07570212      11.08848591      -0.01666548       0.01666548       0.03484512
Al      11.08889533      19.17475193       9.06362024      -0.01288065       0.00404474      -0.03403815
Al       9.05000000      17.15000000      13.10000000      -0.09564716       0.00055078      -0.43495689
Al       9.05000000      19.17500000      15.12500000      -0.05138515       0.05138515       0.67052372
Al      11.07500000      17.15000000      15.12500000      -0.02643370       0.02643370       0.68656199
Al      11.07500000      19.17500000      13.10000000      -0.00055078       0.09564716      -0.43495689
Al       9.05000000      21.20000000       5.00000000      -0.05035809      -0.31852939      -0.60878029
Al       9.05000000      23.22500000       7.02500000      -0.02200352       0.58076373       0.22438571
Al      11.07500000      21.20000000       7.02500000      -0.00197093      -0.05464998       0.56083650
Al      11.07500000      23.22500000       5.00000000      -0.01249768       0.20592691      -0.15316031
Al       9.06000109      21.23030618       9.06981913      -0.00637317       0.01174586      -0.02533212
Al       9.04281455      23.41586779      11.09798902      -0.00413674      -0.00864278      -0.02725217
Al      11.06926920      21.26477702      11.05243314      -0.00390731       0.00922728       0.02167846
Al      11.06645886      23.43111237       9.03339091      -0.00404978       0.01314413       0.02579165
Al       9.05000000      21.20000000      13.10000000      -0.05754309      -0.08499129      -0.57740396
Al       9.05000000      23.22500000      15.12500000      -0.04349407       0.19988918       0.15325840
Al      11.07500000      21.20000000      15.12500000      -0.01348584      -0.31779868       0.60898097
Al      11.07500000      23.22500000      13.10000000      -0.00558857       0.62180096      -0.23456276
Al      13.10000000       5.00000000       5.00000000       0.00097527      -0.20782699      -0.15223445
Al      13.10000000       7.02500000       7.02500000       0.00175692       0.00651160       0.53095027
Al      15.12500000       5.00000000       7.02500000       0.01254128      -0.62696478       0.24442976
Al      15.12500000       7.02500000       5.00000000       0.00122309       0.31768586      -0.60733301
Al      13.09904183       4.79485141       9.03237011      -0.00209841      -0.02772894       0.02365737
Al      13.09876057       6.95973342      11.05282480      -0.00274151      -0.01503493       0.01441581
Al      15.12595162       4.79496012      11.09243416       0.00671602      -0.02757270      -0.02679873
Al      15.12771808       6.95816057       9.07081952       0.00598546      -0.01250522      -0.01633838
Al      13.10000000       5.00000000      13.10000000      -0.00980892      -0.62431765      -0.25006303
Al      13.10000000       7.02500000      15.12500000       0.00099766       0.31722317       0.60938621
Al      15.12500000       5.00000000      15.12500000       0.00133671      -0.20907317       0.15323299
Al      15.12500000       7.02500000      13.10000000       0.00301725       0.00934046      -0.53594448
Al      13.10000000       9.05000000       5.00000000       0.00033216      -0.05617448      -0.66657666
Al      13.10000000      11.07500000       7.02500000      -0.00496066       0.05367731       0.40978929
Al      15.12500000       9.05000000       7.02500000       0.00073582      -0.12219961       0.41009028
Al      15.12500000      11.07500000       5.00000000       0.00309341      -0.01904326      -0.66700035
Al      13.10087002       9.02294478       9.05186092      -0.00436225      -0.00916461      -0.03533048
Al      13.10180005      11.04844433      11.07731106      -0.00549108      -0.00340380       0.01836461
Al      15.12723022       9.02097919      11.07057416       0.00774828      -0.00597143       0.03022726
Al      15.11041923      11.08639161       9.06198733       0.01298066      -0.00437074      -0.02862716
Al      13.10000000       9.05000000      13.10000000       0.00238198      -0.19144974      -0.35241975
Al      13.10000000      11.07500000      15.12500000      -0.00009926      -0.01702175       0.66167931
Al      15.12500000       9.05000000      15.12500000       0.00142958      -0.05411440       0.66564665
Al      15.12500000      11.07500000      13.10000000      -0.00875960       0.00274501      -0.35978165
Al      13.10000000      13.10000000       5.00000000      -0.00034392       0.00030277      -0.66587530
Al      13.10000000      15.12500000       7.02500000      -0.00801116       0.00801116       0.06830374
Al      15.12500000      13.10000000       7.02500000      -0.04006670       0.04006670       0.34255277
Al      15.12500000      15.12500000       5.00000000      -0.00030277       0.00034392      -0.66587530
Al      13.09960961      13.14257063       9.08504790      -0.00603003       0.02377502      -0.01206115
Al      15.04646700      13.17853300      11.09217019       0.01235179      -0.01235179       0.02144599
Al      15.08242937      15.12539039       9.08504790      -0.02377502       0.00603003      -0.01206115
Al      13.10000000      13.10000000      13.10000000      -0.01475927       0.39014667      -0.44890636
Al      13.10000000      15.12500000      15.12500000      -0.00061993       0.00061993       0.82504413
Al      15.12500000      13.10000000      15.12500000       0.01235429      -0.01235429       0.68314729
Al      15.12500000      15.12500000      13.10000000      -0.39014667       0.01475927      -0.44890636
Al      13.10000000      17.15000000       5.00000000      -0.00057821       0.01469835      -0.66770939
Al      13.10000000      19.17500000       7.02500000       0.00007778       0.05807159       0.46981435
Al      15.12500000      17.15000000       7.02500000      -0.04169566      -0.00433331       0.36144186
Al      15.12500000      19.17500000       5.00000000       0.00220354       0.05590540      -0.67063234
Al      13.10061719      17.11529560       9.08484065      -0.00678485      -0.01894607      -0.01662680
Al      13.10071381      19.21935165      11.07513307      -0.00527031       0.00500236       0.02377633
Al      15.04700739      17.07965447      11.09037807       0.01360230       0.01757474       0.02889463
Al      15.11150204      19.18234937       9.06282681       0.01154460       0.00616644      -0.03191439
Al      13.10000000      17.15000000      13.10000000      -0.00882891      -0.35715014      -0.47177026
Al      13.10000000      19.17500000      15.12500000      -0.00024271       0.05351304       0.66536270
Al      15.12500000      17.15000000      15.12500000       0.01179891       0.02692028       0.68541033
Al      15.12500000      19.17500000      13.10000000      -0.01569424       0.10721365      -0.42610367
Al      13.10000000      21.20000000       5.00000000       0.00028872      -0.31580335      -0.60948617
Al      13.10000000      23.22500000       7.02500000      -0.01061124       0.63287981       0.23991170
Al      15.12500000      21.20000000       7.02500000      -0.00114824      -0.04585447       0.56708751
Al      15.12500000      23.22500000       5.00000000       0.00010035       0.20864919      -0.15207059
Al      13.09860744      21.26844400       9.06967518      -0.00333422       0.01594516      -0.01798488
Al      13.09906032      23.43106616      11.09142714      -0.00341469       0.02671859      -0.02520933
Al      15.12948278      21.27042373      11.05158548       0.00273196       0.01183543       0.01688820
Al      15.12734592      23.43387384       9.03106706       0.00236035       0.02467227       0.02549572
Al      13.10000000      21.20000000      13.10000000       0.00069254       0.02313164      -0.51322840
Al      13.10000000      23.22500000      15.12500000       0.00033294       0.20978288       0.15401215
Al      15.12500000      21.20000000      15.12500000       0.00006074      -0.31771300       0.60934003
Al      15.12500000      23.22500000      13.10000000       0.01242077       0.62997193      -0.24877680
Al      17.15000000       5.00000000       5.00000000       0.01387702      -0.20470443      -0.15258725
Al      17.15000000       7.02500000       7.02500000       0.00582373       0.03688389       0.54316375
Al      19.17500000       5.00000000       7.02500000       0.02192526      -0.58515364       0.22470798
Al      19.17500000       7.02500000       5.00000000       0.05086932       0.31914347      -0.60667906
Al      17.15771167       4.79600652       9.03445366       0.00854481      -0.01394972       0.02518262
Al      17.15402148       6.96420076      11.05357156       0.00751027      -0.01038937       0.01735857
Al      19.18128122       4.81119308      11.09846179       0.00800734       0.00759858      -0.02971589
Al      19.16797591       6.99064362       9.06957512       0.00664878      -0.01011378      -0.02798818
Al      17.15000000       5.00000000      13.10000000       0.00772518      -0.61689334      -0.23617547
Al      17.15000000       7.02500000      15.12500000       0.01572541       0.31713007       0.60794759
Al      19.17500000       5.00000000      15.12500000       0.04436202      -0.19818808       0.15151602
Al      19.17500000       7.02500000      13.10000000       0.06418957       0.07269612      -0.56660399
Al      17.15000000       9.05000000       5.00000000       0.01711006      -0.05457066      -0.66645688
Al      17.15000000      11.07500000       7.02500000       0.00028121      -0.00028121       0.37720686
Al      19.17500000       9.05000000       7.02500000       0.09981633      -0.09981633       0.44957823
Al      19.17500000      11.07500000       5.00000000       0.05457066      -0.01711006      -0.66645688
Al      17.14180654       9.04219700       9.05612627       0.01557700      -0.01085942      -0.03416475
Al      17.12479310      11.10020690      11.07296242       0.01435524      -0.01435524       0.02905862
Al      19.16720003       9.05779997      11.06987587       0.01015351      -0.01015351       0.03661292
Al      19.18280300      11.08319346       9.05612627       0.01085942      -0.01557700      -0.03416475
Al      17.15000000       9.05000000      13.10000000       0.01040879      -0.11568040      -0.41244153
Al      17.15000000      11.07500000      15.12500000       0.01689777      -0.01689777       0.66562423
Al      19.17500000       9.05000000      15.12500000       0.05305630      -0.05305630       0.66792597
Al      19.17500000      11.07500000      13.10000000       0.11568040      -0.01040879      -0.41244153
Al      17.15000000      13.10000000       5.00000000       0.01904326      -0.00309341      -0.66700035
Al      17.15000000      15.12500000       7.02500000      -0.05367731       0.00496066       0.40978929
Al      19.17500000      13.10000000       7.02500000       0.12219961      -0.00073582       0.41009028
Al      19.17500000      15.12500000       5.00000000       0.05617448      -0.00033216      -0.66657666
Al      17.13860839      13.11458077       9.06198733       0.00437074      -0.01298066      -0.02862716
Al      17.17655567      15.12319995      11.07731106       0.00340380       0.00549108       0.01836461
Al      19.20402081      13.09776978      11.07057416       0.00597143      -0.00774828       0.03022726
Al      19.20205522      15.12412998       9.05186092       0.00916461       0.00436225      -0.03533048
Al      17.15000000      13.10000000      13.10000000      -0.00274501       0.00875960      -0.35978165
Al      17.15000000      15.12500000      15.12500000       0.01702175       0.00009926       0.66167931
Al      19.17500000      13.10000000      15.12500000       0.05411440      -0.00142958       0.66564665
Al      19.17500000      15.12500000      13.10000000       0.19144974      -0.00238198      -0.35241975
Al      17.15000000      17.15000000       5.00000000       0.01831921       0.01715257      -0.66867494
Al      17.15000000      19.17500000       7.02500000      -0.01735412       0.10572953       0.43010415
Al      19.17500000      17.15000000       7.02500000       0.10839858       0.01432310       0.41940331
Al      19.17500000      19.17500000       5.00000000       0.05218106       0.05198015      -0.66834105
Al      17.13401451      17.13801456       9.06399472       0.00633336       0.01485788      -0.03345989
Al      17.12326765      19.16574802      11.07191452       0.01070323       0.01180556       0.03402424
Al      19.19618919      17.15067435      11.06960565       0.00307166       0.00840392       0.03507328
Al      19.16932335      19.17079874       9.05650672       0.00713410       0.01027091      -0.03890757
Al      17.15000000      17.15000000      13.10000000      -0.01218225       0.01960251      -0.38155278
Al      17.15000000      19.17500000      15.12500000       0.01554183       0.05289774       0.66917896
Al      19.17500000      17.15000000      15.12500000       0.05318561       0.01453273       0.66674766
Al      19.17500000      19.17500000      13.10000000       0.08702720       0.10487131      -0.45816107
Al      17.15000000      21.20000000       5.00000000       0.01463508      -0.31729300      -0.60883237
Al      17.15000000      23.22500000       7.02500000       0.00742120       0.60398932       0.23963887
Al      19.17500000      21.20000000       7.02500000       0.05617723      -0.07463108       0.56458237
Al      19.17500000      23.22500000       5.00000000       0.04309501       0.19784994      -0.15271617
Al      17.14691508      21.25169688       9.07117367       0.00861760       0.01503073      -0.01804287
Al      17.15865386      23.43018854      11.08933190       0.00309217       0.01067500      -0.02493601
Al      19.16110305      21.22841120      11.05557538       0.00612523       0.01163132       0.02750298
Al      19.17885583      23.40848804       9.02649659       0.00658165      -0.00960759       0.02708538
Al      17.15000000      21.20000000      13.10000000      -0.00409470      -0.04972255      -0.55620876
Al      17.15000000      23.22500000      15.12500000       0.01355837       0.20713853       0.15478413
Al      19.17500000      21.20000000      15.12500000       0.05083480      -0.31802529       0.61000097
Al      19.17500000      23.22500000      13.10000000       0.01882292       0.58042638      -0.22886388
Al      21.20000000       5.00000000       5.00000000      -0.45066619      -0.09073391      -0.06330028
Al      21.20000000       7.02500000       7.02500000      -0.14871964       0.14871964       0.67525741
Al      23.22500000       5.00000000       7.02500000       0.04082480      -0.04082480       0.53023534
Al      23.22500000       7.02500000       5.00000000       0.09073391       0.45066619      -0.06330028
Al      21.17480047       4.87376357       9.04352527       0.00751936       0.01269299       0.02084896
Al      21.19691053       7.02808947      11.04137713       0.00974355      -0.00974355       0.01785755
Al      23.24624925       4.97875075      11.06321834       0.00365024      -0.00365024      -0.01354267
Al      23.35123643       7.05019953       9.04352527      -0.01269299      -0.00751936       0.02084896
Al      21.20000000       5.00000000      13.10000000      -0.22937988      -0.47980510      -0.38972170
Al      21.20000000       7.02500000      15.12500000      -0.31693319       0.31693319       0.55562632
Al      23.22500000       5.00000000      15.12500000      -0.33379301       0.33379301      -0.34053090
Al      23.22500000       7.02500000      13.10000000       0.47980510       0.22937988      -0.38972170
Al      21.20000000       9.05000000       5.00000000      -0.31914347      -0.05086932      -0.60667906
Al      21.20000000      11.07500000       7.02500000      -0.03688389      -0.00582373       0.54316375
Al      23.22500000       9.05000000       7.02500000       0.58515364      -0.02192526       0.22470798
Al      23.22500000      11.07500000       5.00000000       0.20470443      -0.01387702      -0.15258725
Al      21.23435638       9.05702409       9.06957512       0.01011378      -0.00664878      -0.02798818
Al      21.26079924      11.07097852      11.05357156       0.01038937      -0.00751027       0.01735857
Al      23.41380692       9.04371878      11.09846179      -0.00759858      -0.00800734      -0.02971589
Al      23.42899348      11.06728833       9.03445366       0.01394972      -0.00854481       0.02518262
Al      21.20000000       9.05000000      13.10000000      -0.07269612      -0.06418957      -0.56660399
Al      21.20000000      11.07500000      15.12500000      -0.31713007      -0.01572541       0.60794759
Al      23.22500000       9.05000000      15.12500000       0.19818808      -0.04436202       0.15151602
Al      23.22500000      11.07500000      13.10000000       0.61689334      -0.00772518      -0.23617547
Al      21.20000000      13.10000000       5.00000000      -0.31768586      -0.00122309      -0.60733301
Al      21.20000000      15.12500000       7.02500000      -0.00651160      -0.00175692       0.53095027
Al      23.22500000      13.10000000       7.02500000       0.62696478      -0.01254128       0.24442976
Al      23.22500000      15.12500000       5.00000000       0.20782699      -0.00097527      -0.15223445
Al      21.26683943      13.09728192       9.07081952       0.01250522      -0.00598546      -0.01633838
Al      21.26526658      15.12623943      11.05282480       0.01503493       0.00274151       0.01441581
Al      23.43003988      13.09904838      11.09243416       0.02757270      -0.00671602      -0.02679873
Al      23.43014859      15.12595817       9.03237011       0.02772894       0.00209841       0.02365737
Al      21.20000000      13.10000000      13.10000000      -0.00934046      -0.00301725      -0.53594448
Al      21.20000000      15.12500000      15.12500000      -0.31722317      -0.00099766       0.60938621
Al      23.22500000      13.10000000      15.12500000       0.20907317      -0.00133671       0.15323299
Al      23.22500000      15.12500000      13.10000000       0.62431765       0.00980892      -0.25006303
Al      21.20000000      17.15000000       5.00000000      -0.31792625       0.01331638      -0.60741661
Al      21.20000000      19.17500000       7.02500000      -0.07316306       0.06600529       0.56365551
Al      23.22500000      17.15000000       7.02500000       0.61939625       0.00459935       0.23037337
Al      23.22500000      19.17500000       5.00000000       0.19818446       0.04281819      -0.15195325
Al      21.26107186      17.15391284       9.06989727       0.01046634       0.00460159      -0.02022856
Al      21.23936952      19.17184251      11.05480064       0.00731776       0.00376618       0.02743351
Al      23.42744470      17.15704310      11.09002644       0.01607978       0.00747087      -0.02663386
Al      23.41431504      19.18143599       9.02590421      -0.00363215       0.00690821       0.02784761
Al      21.20000000      17.15000000      13.10000000      -0.01911609       0.00389599      -0.53136699