299
Lattice="28.224999999999998 0.0 0.0 0.0 28.224999999999998 0.0 0.0 0.0 20.125" Properties=species:S:1:pos:R:3:forces:R:3 energy=-16469.299108979427 pbc="T T T"
Al       5.00000000       5.00000000       5.00000000       0.32651401       0.32641194       0.33722213
Al       5.00000000       7.02500000       7.02500000      -0.49764453       0.24462207       0.37469050
Al       7.02500000       5.00000000       7.02500000       0.23904191      -0.49652083       0.37203987
Al       7.02500000       7.02500000       5.00000000       0.32205081       0.32232403      -0.58110279
Al       4.97800769       4.97892168       9.04841810      -0.00929749      -0.00963375       0.05513321
Al       4.88131042       7.04951697      11.08334627      -0.00011895      -0.00536518      -0.04757594
Al       7.04658686       4.87380642      11.08376954      -0.00371790      -0.00163912      -0.04776771
Al       7.02778339       7.02747093       9.08001079      -0.00640818      -0.00805370       0.02717222
Al       5.00000000       5.00000000      13.10000000      -0.05345331      -0.04791655      -0.52161335
Al       5.00000000       7.02500000      15.12500000      -0.09709944       0.45260573       0.07893648
Al       7.02500000       5.00000000      15.12500000       0.45255343      -0.09779428       0.07790359
Al       7.02500000       7.02500000      13.10000000       0.14460860       0.14853852      -0.66532811
Al       5.00000000       9.05000000       5.00000000      -0.20078295      -0.03850356      -0.16869581
Al       5.00000000      11.07500000       7.02500000      -0.61976120      -0.00882392       0.23891663
Al       7.02500000       9.05000000       7.02500000       0.06955537      -0.05091255       0.55187922
Al       7.02500000      11.07500000       5.00000000       0.32776426      -0.00756241      -0.63935700
Al       4.81977935       9.04432589       9.02443433      -0.00052589      -0.00133756       0.04717642
Al       4.79369860      11.06571530      11.09366717      -0.00324126      -0.00083301      -0.04676078
Al       6.99659475       9.06253600      11.06018018      -0.00573674      -0.00094287      -0.02691969
Al       6.97112186      11.07661107       9.06906252      -0.00070393       0.00236530       0.02835926
Al       5.00000000       9.05000000      13.10000000      -0.59741315      -0.02486042      -0.22854534
Al       5.00000000      11.07500000      15.12500000      -0.20576323      -0.00832350       0.16998104
Al       7.02500000       9.05000000      15.12500000       0.32667551      -0.04240543       0.63721427
Al       7.02500000      11.07500000      13.10000000       0.04298348       0.01079586      -0.54431303
Al       5.00000000      13.10000000       5.00000000      -0.20708977       0.00244232      -0.16934187
Al       5.00000000      15.12500000       7.02500000      -0.64579162       0.01169308       0.23494977
Al       7.02500000      13.10000000       7.02500000       0.03678796       0.00366578       0.56495925
Al       7.02500000      15.12500000       5.00000000       0.32730689      -0.00270664      -0.63993115
Al       4.78726539      13.09761764       9.02788098      -0.00587922      -0.00133592       0.04651613
Al       4.78965715      15.12708425      11.09567239      -0.00651688       0.00017425      -0.04567536
Al       6.95255013      13.09581032      11.05401353      -0.00043397      -0.00075216      -0.02513125
Al       6.95415919      15.12728751       9.06777722      -0.00128397       0.00049471       0.02539995
Al       5.00000000      13.10000000      13.10000000      -0.64154390      -0.01002077      -0.23955484
Al       5.00000000      15.12500000      15.12500000      -0.20709766      -0.00244727       0.16966229
Al       7.02500000      13.10000000      15.12500000       0.32787325       0.00241326       0.63836953
Al       7.02500000      15.12500000      13.10000000      -0.02896764      -0.00186751      -0.50811500
Al       5.00000000      17.15000000       5.00000000      -0.20616661       0.00801348      -0.16990240
Al       5.00000000      19.17500000       7.02500000      -0.59716302       0.02735606       0.22630924
Al       7.02500000      17.15000000       7.02500000       0.04831428      -0.00201691       0.55373871
Al       7.02500000      19.17500000       5.00000000       0.32660965       0.04260097      -0.63769567
Al       4.79288963      17.15992944       9.03014985      -0.00473419       0.00033529       0.04726721
Al       4.81267804      19.18372281      11.10110863      -0.00213112       0.00002545      -0.04660403
Al       6.95952391      17.15701678      11.05580494       0.00007635      -0.00418128      -0.02754175
Al       6.99466337      19.16658893       9.06636223      -0.00503906      -0.00036456       0.02732903
Al       5.00000000      17.15000000      13.10000000      -0.63518190       0.00891280      -0.22795719
Al       5.00000000      19.17500000      15.12500000      -0.20132955       0.03894584       0.16767197
Al       7.02500000      17.15000000      15.12500000       0.32768664       0.00740672       0.63776645
Al       7.02500000      19.17500000      13.10000000       0.08177056       0.05228009      -0.55916504
Al       5.00000000      21.20000000       5.00000000      -0.09729065      -0.45253559      -0.07883330
Al       5.00000000      23.22500000       7.02500000      -0.04947038       0.04947038       0.52560552
Al       7.02500000      21.20000000       7.02500000       0.15281677      -0.15281677       0.66211527
Al       7.02500000      23.22500000       5.00000000       0.45253559       0.09729065      -0.07883330
Al       4.88112429      21.17561139       9.04151558      -0.00231090       0.00437418       0.04725625
Al       4.98231098      23.24268902      11.07553915      -0.01054408       0.01054408      -0.05515151
Al       7.03431262      21.19068738      11.04656706      -0.00710427       0.00710427      -0.02638572
Al       7.04938861      23.34387571       9.04151558      -0.00437418       0.00231090       0.04725625
Al       5.00000000      21.20000000      13.10000000      -0.49013053      -0.24274105      -0.37223014
Al       5.00000000      23.22500000      15.12500000       0.32713865      -0.32713865      -0.33648181
Al       7.02500000      21.20000000      15.12500000       0.32195596      -0.32195596       0.58111105
Al       7.02500000      23.22500000      13.10000000       0.24274105       0.49013053      -0.37223014
Al       9.05000000       5.00000000       5.00000000      -0.03877527      -0.20162040      -0.16778183
Al       9.05000000       7.02500000       7.02500000      -0.06005083       0.06760006       0.55168174
Al      11.07500000       5.00000000       7.02500000      -0.00831267      -0.63316728       0.22992794
Al      11.07500000       7.02500000       5.00000000      -0.00743546       0.32804407      -0.63831995
Al       9.04188658       4.81291412       9.02359855      -0.00047468      -0.00115898       0.04694641
Al       9.05213363       6.98621652      11.05937974       0.00019205      -0.00667906      -0.02752914
Al      11.06628710       4.79543748      11.09409271      -0.00130778      -0.00387895      -0.04739113
Al      11.06977971       6.96296296       9.06770028       0.00186497      -0.00246708       0.02858114
Al       9.05000000       5.00000000      13.10000000      -0.02753877      -0.60916909      -0.21970563
Al       9.05000000       7.02500000      15.12500000      -0.04227193       0.32678955       0.63646384
Al      11.07500000       5.00000000      15.12500000      -0.00816796      -0.20582091       0.16996935
Al      11.07500000       7.02500000      13.10000000       0.00185590       0.01277941      -0.52148918
Al       9.05000000       9.05000000       5.00000000      -0.04220044      -0.04167434      -0.70034109
Al       9.05000000      11.07500000       7.02500000      -0.10737823       0.02067671       0.41287526
Al      11.07500000       9.05000000       7.02500000      -0.01226426      -0.10588571       0.40447833
Al      11.07500000      11.07500000       5.00000000      -0.00906450      -0.00873023      -0.70242120
Al       9.05164956       9.05384622       9.05203593       0.00433526       0.00474114       0.02957103
Al       9.05608907      11.09929194      11.07622569       0.00551019       0.00254454      -0.02817085
Al      11.07208206       9.02783399      11.07406755       0.00426981       0.00803222      -0.03015342
Al      11.08271337      11.08772440       9.05989942       0.00871792       0.01116406       0.03003638
Al       9.05000000       9.05000000      13.10000000      -0.10149858      -0.08157881      -0.43354229
Al       9.05000000      11.07500000      15.12500000      -0.04252332      -0.00818740       0.70046563
Al      11.07500000       9.05000000      15.12500000      -0.00783742      -0.04261785       0.69844790
Al      11.07500000      11.07500000      13.10000000      -0.01436416       0.02001369      -0.36693611
Al       9.05000000      13.10000000       5.00000000      -0.04325796       0.00169159      -0.70396762
Al       9.05000000      15.12500000       7.02500000      -0.05668634       0.00002702       0.46316142
Al      11.07500000      13.10000000       7.02500000       0.00525156       0.04298781       0.35240694
Al      11.07500000      15.12500000       5.00000000      -0.00671308      -0.00238830      -0.70346425
Al       9.03953057      13.11183196       9.05910669       0.01041181      -0.00188549       0.02629355
Al       9.00370937      15.12544029      11.07757384       0.00973221       0.00228904      -0.02533754
Al      11.13987668      13.17540116      11.09311601       0.00634710      -0.00867726      -0.01975228
Al      11.10638697      15.12602852       9.08241025       0.02634672       0.00168572       0.03548210
Al       9.05000000      13.10000000      13.10000000      -0.10534444       0.02035769      -0.41413518
Al       9.05000000      15.12500000      15.12500000      -0.04113069      -0.00265721       0.69686331
Al      11.07500000      13.10000000      15.12500000      -0.01679464      -0.00645924       0.71581183
Al      11.07500000      15.12500000      13.10000000       0.36829567       0.00811238      -0.47306479
Al       9.05000000      17.15000000       5.00000000      -0.04311298       0.00864525      -0.70365504
Al       9.05000000      19.17500000       7.02500000      -0.07663081       0.07663081       0.44985755
Al      11.07500000      17.15000000       7.02500000       0.01347725      -0.01347725       0.36161142
Al      11.07500000      19.17500000       5.00000000      -0.00864525       0.04311298      -0.70365504
Al       9.04737670      17.13962044       9.05931875       0.01151948      -0.00603482       0.02970788
Al       9.07047458      19.15452542      11.07654611       0.00448483      -0.00448483      -0.02792446
Al      11.14495479      17.08004521      11.09213857       0.00191611      -0.00191611      -0.02082259
Al      11.08537956      19.17762330       9.05931875       0.00603482      -0.01151948       0.02970788
Al       9.05000000      17.15000000      13.10000000      -0.09154292      -0.00567513      -0.41786345
Al       9.05000000      19.17500000      15.12500000      -0.04205127       0.04205127       0.70033041
Al      11.07500000      17.15000000      15.12500000      -0.01682312       0.01682312       0.71669831
Al      11.07500000      19.17500000      13.10000000       0.00567513       0.09154292      -0.41786345
Al       9.05000000      21.20000000       5.00000000      -0.04260097      -0.32660965      -0.63769567
Al       9.05000000      23.22500000       7.02500000      -0.02735606       0.59716302       0.22630924
Al      11.07500000      21.20000000       7.02500000       0.00201691      -0.04831428       0.55373871
Al      11.07500000      23.22500000       5.00000000      -0.00801348       0.20616661      -0.16990240
Al       9.05841107      21.23033663       9.06636223       0.00036456       0.00503906       0.02732903
Al       9.04127719      23.41232196      11.10110863      -0.00002545       0.00213112      -0.04660403
Al      11.06798322      21.26547609      11.05580494       0.00418128      -0.00007635      -0.02754175
Al      11.06507056      23.43211037       9.03014985      -0.00033529       0.00473419       0.04726721
Al       9.05000000      21.20000000      13.10000000      -0.05228009      -0.08177056      -0.55916504
Al       9.05000000      23.22500000      15.12500000      -0.03894584       0.20132955       0.16767197
Al      11.07500000      21.20000000      15.12500000      -0.00740672      -0.32768664       0.63776645
Al      11.07500000      23.22500000      13.10000000      -0.00891280       0.63518190      -0.22795719
Al      13.10000000       5.00000000       5.00000000       0.00219437      -0.20719795      -0.16964197
Al      13.10000000       7.02500000       7.02500000       0.00216770      -0.00295848       0.53029548
Al      15.12500000       5.00000000       7.02500000       0.01089496      -0.63995591       0.24068010
Al      15.12500000       7.02500000       5.00000000      -0.00301674       0.32816412      -0.63905104
Al      13.09836538       4.79006511       9.02888874      -0.00177427      -0.00552229       0.04645826
Al      13.09820741       6.95734910      11.05506152      -0.00232784      -0.00281837      -0.02714675
Al      15.12692901       4.79020010      11.09645955       0.00004029      -0.00614649      -0.04702957
Al      15.12821073       6.95599633       9.06930032      -0.00058324      -0.00328187       0.02631957
Al      13.10000000       5.00000000      13.10000000      -0.01098166      -0.63632354      -0.24259822
Al      13.10000000       7.02500000      15.12500000       0.00270240       0.32788807       0.63871402
Al      15.12500000       5.00000000      15.12500000      -0.00234948      -0.20670245       0.16949241
Al      15.12500000       7.02500000      13.10000000      -0.00186909       0.00060143      -0.52992928
Al      13.10000000       9.05000000       5.00000000       0.00232047      -0.04290727      -0.70056721
Al      13.10000000      11.07500000       7.02500000      -0.00553390       0.06053048       0.40454259
Al      15.12500000       9.05000000       7.02500000      -0.00135383      -0.12063048       0.39927621
Al      15.12500000      11.07500000       5.00000000      -0.00177901      -0.00871350      -0.70182968
Al      13.10001125       9.02127664       9.04839461      -0.00412690       0.00691354       0.02641666
Al      13.10041625      11.04624883      11.07910419      -0.00283773       0.01629170      -0.02877749
Al      15.12798044       9.01960485      11.07425170       0.00006939       0.00799333      -0.02768003
Al      15.11270922      11.08285169       9.05866942      -0.00088348       0.01778889       0.02879544
Al      13.10000000       9.05000000      13.10000000       0.00212897      -0.18712844      -0.34120824
Al      13.10000000      11.07500000      15.12500000       0.00260092      -0.00698084       0.69417611
Al      15.12500000       9.05000000      15.12500000      -0.00233191      -0.04257023       0.69868665
Al      15.12500000      11.07500000      13.10000000      -0.01410936       0.01089366      -0.35052631
Al      13.10000000      13.10000000       5.00000000       0.00231545       0.00406213      -0.70276688
Al      13.10000000      15.12500000       7.02500000      -0.00853508       0.00853508       0.06199276
Al      15.12500000      13.10000000       7.02500000      -0.04219556       0.04219556       0.34091009
Al      15.12500000      15.12500000       5.00000000      -0.00406213      -0.00231545      -0.70276688
Al      13.09769956      13.14195608       9.08333921       0.00105870       0.01476401       0.03581422
Al      15.04966533      13.17533467      11.09385505       0.00490475      -0.00490475      -0.02013060
Al      15.08304392      15.12730044       9.08333921      -0.01476401      -0.00105870       0.03581422
Al      13.10000000      13.10000000      13.10000000      -0.01521876       0.39518372      -0.45436843
Al      13.10000000      15.12500000      15.12500000       0.00279643      -0.00279643       0.85404127
Al      15.12500000      13.10000000      15.12500000       0.00631905      -0.00631905       0.71433172
Al      15.12500000      15.12500000      13.10000000      -0.39518372       0.01521876      -0.45436843
Al      13.10000000      17.15000000       5.00000000       0.00238830       0.00671308      -0.70346425
Al      13.10000000      19.17500000       7.02500000      -0.00002702       0.05668634       0.46316142
Al      15.12500000      17.15000000       7.02500000      -0.04298781      -0.00525156       0.35240694
Al      15.12500000      19.17500000       5.00000000      -0.00169159       0.04325796      -0.70396762
Al      13.09897148      17.11861303       9.08241025      -0.00168572      -0.02634672       0.03548210
Al      13.09955971      19.22129063      11.07757384      -0.00228904      -0.00973221      -0.02533754
Al      15.04959884      17.08512332      11.09311601       0.00867726      -0.00634710      -0.01975228
Al      15.11316804      19.18546943       9.05910669       0.00188549      -0.01041181       0.02629355
Al      13.10000000      17.15000000      13.10000000      -0.00811238      -0.36829567      -0.47306479
Al      13.10000000      19.17500000      15.12500000       0.00265721       0.04113069       0.69686331
Al      15.12500000      17.15000000      15.12500000       0.00645924       0.01679464       0.71581183
Al      15.12500000      19.17500000      13.10000000      -0.02035769       0.10534444      -0.41413518
Al      13.10000000      21.20000000       5.00000000       0.00270664      -0.32730689      -0.63993115
Al      13.10000000      23.22500000       7.02500000      -0.01169308       0.64579162       0.23494977
Al      15.12500000      21.20000000       7.02500000      -0.00366578      -0.03678796       0.56495925
Al      15.12500000      23.22500000       5.00000000      -0.00244232       0.20708977      -0.16934187
Al      13.09771249      21.27084081       9.06777722      -0.00049471       0.00128397       0.02539995
Al      13.09791575      23.43534285      11.09567239      -0.00017425       0.00651688      -0.04567536
Al      15.12918968      21.27244987      11.05401353       0.00075216       0.00043397      -0.02513125
Al      15.12738236      23.43773461       9.02788098       0.00133592       0.00587922       0.04651613
Al      13.10000000      21.20000000      13.10000000       0.00186751       0.02896764      -0.50811500
Al      13.10000000      23.22500000      15.12500000       0.00244727       0.20709766       0.16966229
Al      15.12500000      21.20000000      15.12500000      -0.00241326      -0.32787325       0.63836953
Al      15.12500000      23.22500000      13.10000000       0.01002077       0.64154390      -0.23955484
Al      17.15000000       5.00000000       5.00000000       0.00776413      -0.20643076      -0.17029640
Al      17.15000000       7.02500000       7.02500000      -0.00249349       0.02835019       0.53481346
Al      19.17500000       5.00000000       7.02500000       0.02721187      -0.60413715       0.22495273
Al      19.17500000       7.02500000       5.00000000       0.04178385       0.32685141      -0.63752622
Al      17.15920838       4.79425524       9.03103122       0.00041314      -0.00398252       0.04644378
Al      17.15525270       6.96307078      11.05671794      -0.00423653      -0.00270682      -0.02980318
Al      19.18304712       4.81403825      11.10140386       0.00023233      -0.00180343      -0.04768357
Al      19.16924580       6.99066303       9.06577569       0.00032997      -0.00718221       0.02643388
Al      17.15000000       5.00000000      13.10000000       0.00847994      -0.63165309      -0.22886890
Al      17.15000000       7.02500000      15.12500000       0.00724055       0.32815221       0.63817925
Al      19.17500000       5.00000000      15.12500000       0.03837660      -0.20110494       0.16798384
Al      19.17500000       7.02500000      13.10000000       0.05681528       0.06722760      -0.54660109
Al      17.15000000       9.05000000       5.00000000       0.00774563      -0.04207134      -0.70073177
Al      17.15000000      11.07500000       7.02500000      -0.00292867       0.00292867       0.35999432
Al      19.17500000       9.05000000       7.02500000       0.09543483      -0.09543483       0.42631578
Al      19.17500000      11.07500000       5.00000000       0.04207134      -0.00774563      -0.70073177
Al      17.14484201       9.03955078       9.05229340      -0.00537254       0.00728459       0.02948552
Al      17.12857631      11.09642369      11.07672085      -0.00733853       0.00733853      -0.03014764
Al      19.16938588       9.05561412      11.07523199      -0.00382827       0.00382827      -0.03077674
Al      19.18544922      11.08015799       9.05229340      -0.00728459       0.00537254       0.02948552
Al      17.15000000       9.05000000      13.10000000       0.00448920      -0.11274979      -0.38995458
Al      17.15000000      11.07500000      15.12500000       0.00833208      -0.00833208       0.69887836
Al      19.17500000       9.05000000      15.12500000       0.04160192      -0.04160192       0.69985248
Al      19.17500000      11.07500000      13.10000000       0.11274979      -0.00448920      -0.38995458
Al      17.15000000      13.10000000       5.00000000       0.00871350       0.00177901      -0.70182968
Al      17.15000000      15.12500000       7.02500000      -0.06053048       0.00553390       0.40454259
Al      19.17500000      13.10000000       7.02500000       0.12063048       0.00135383       0.39927621
Al      19.17500000      15.12500000       5.00000000       0.04290727      -0.00232047      -0.70056721
Al      17.14214831      13.11229078       9.05866942      -0.01778889       0.00088348       0.02879544
Al      17.17875117      15.12458375      11.07910419      -0.01629170       0.00283773      -0.02877749
Al      19.20539515      13.09701956      11.07425170      -0.00799333      -0.00006939      -0.02768003
Al      19.20372336      15.12498875       9.04839461      -0.00691354       0.00412690       0.02641666
Al      17.15000000      13.10000000      13.10000000      -0.01089366       0.01410936      -0.35052631
Al      17.15000000      15.12500000      15.12500000       0.00698084      -0.00260092       0.69417611
Al      19.17500000      13.10000000      15.12500000       0.04257023       0.00233191       0.69868665
Al      19.17500000      15.12500000      13.10000000       0.18712844      -0.00212897      -0.34120824
Al      17.15000000      17.15000000       5.00000000       0.00873023       0.00906450      -0.70242120
Al      17.15000000      19.17500000       7.02500000      -0.02067671       0.10737823       0.41287526
Al      19.17500000      17.15000000       7.02500000       0.10588571       0.01226426       0.40447833
Al      19.17500000      19.17500000       5.00000000       0.04167434       0.04220044      -0.70034109
Al      17.13727560      17.14228663       9.05989942      -0.01116406      -0.00871792       0.03003638
Al      17.12570806      19.16891093      11.07622569      -0.00254454      -0.00551019      -0.02817085
Al      19.19716601      17.15291794      11.07406755      -0.00803222      -0.00426981      -0.03015342
Al      19.17115378      19.17335044       9.05203593      -0.00474114      -0.00433526       0.02957103
Al      17.15000000      17.15000000      13.10000000      -0.02001369       0.01436416      -0.36693611
Al      17.15000000      19.17500000      15.12500000       0.00818740       0.04252332       0.70046563
Al      19.17500000      17.15000000      15.12500000       0.04261785       0.00783742       0.69844790
Al      19.17500000      19.17500000      13.10000000       0.08157881       0.10149858      -0.43354229
Al      17.15000000      21.20000000       5.00000000       0.00756241      -0.32776426      -0.63935700
Al      17.15000000      23.22500000       7.02500000       0.00882392       0.61976120       0.23891663
Al      19.17500000      21.20000000       7.02500000       0.05091255      -0.06955537       0.55187922
Al      19.17500000      23.22500000       5.00000000       0.03850356       0.20078295      -0.16869581
Al      17.14838893      21.25387814       9.06906252      -0.00236530       0.00070393       0.02835926
Al      17.15928470      23.43130140      11.09366717       0.00083301       0.00324126      -0.04676078
Al      19.16246400      21.22840525      11.06018018       0.00094287       0.00573674      -0.02691969
Al      19.18067411      23.40522065       9.02443433       0.00133756       0.00052589       0.04717642
Al      17.15000000      21.20000000      13.10000000      -0.01079586      -0.04298348      -0.54431303
Al      17.15000000      23.22500000      15.12500000       0.00832350       0.20576323       0.16998104
Al      19.17500000      21.20000000      15.12500000       0.04240543      -0.32667551       0.63721427
Al      19.17500000      23.22500000      13.10000000       0.02486042       0.59741315      -0.22854534
Al      21.20000000       5.00000000       5.00000000      -0.45233972      -0.09848348      -0.07895823
Al      21.20000000       7.02500000       7.02500000      -0.14509631       0.14509631       0.66282896
Al      23.22500000       5.00000000       7.02500000       0.05143056      -0.05143056       0.52065723
Al      23.22500000       7.02500000       5.00000000       0.09848348       0.45233972      -0.07895823
Al      21.17740034       4.87755916       9.04168783       0.00493120      -0.00143936       0.04705794
Al      21.19658387       7.02841613      11.04599824       0.00785054      -0.00785054      -0.02841227
Al      23.24615017       4.97884983      11.07710960       0.00990310      -0.00990310      -0.05533114
Al      23.34744084       7.04759966       9.04168783       0.00143936      -0.00493120       0.04705794
Al      21.20000000       5.00000000      13.10000000      -0.24090570      -0.49684348      -0.36869727
Al      21.20000000       7.02500000      15.12500000      -0.32242504       0.32242504       0.58127049
Al      23.22500000       5.00000000      15.12500000      -0.32674371       0.32674371      -0.33733133
Al      23.22500000       7.02500000      13.10000000       0.49684348       0.24090570      -0.36869727
Al      21.20000000       9.05000000       5.00000000      -0.32685141      -0.04178385      -0.63752622
Al      21.20000000      11.07500000       7.02500000      -0.02835019       0.00249349       0.53481346
Al      23.22500000       9.05000000       7.02500000       0.60413715      -0.02721187       0.22495273
Al      23.22500000      11.07500000       5.00000000       0.20643076      -0.00776413      -0.17029640
Al      21.23433697       9.05575420       9.06577569       0.00718221      -0.00032997       0.02643388
Al      21.26192922      11.06974730      11.05671794       0.00270682       0.00423653      -0.02980318
Al      23.41096175       9.04195288      11.10140386       0.00180343      -0.00023233      -0.04768357
Al      23.43074476      11.06579162       9.03103122       0.00398252      -0.00041314       0.04644378
Al      21.20000000       9.05000000      13.10000000      -0.06722760      -0.05681528      -0.54660109
Al      21.20000000      11.07500000      15.12500000      -0.32815221      -0.00724055       0.63817925
Al      23.22500000       9.05000000      15.12500000       0.20110494      -0.03837660       0.16798384
Al      23.22500000      11.07500000      13.10000000       0.63165309      -0.00847994      -0.22886890
Al      21.20000000      13.10000000       5.00000000      -0.32816412       0.00301674      -0.63905104
Al      21.20000000      15.12500000       7.02500000       0.00295848      -0.00216770       0.53029548
Al      23.22500000      13.10000000       7.02500000       0.63995591      -0.01089496       0.24068010
Al      23.22500000      15.12500000       5.00000000       0.20719795      -0.00219437      -0.16964197
Al      21.26900367      13.09678927       9.06930032       0.00328187       0.00058324       0.02631957
Al      21.26765090      15.12679259      11.05506152       0.00281837       0.00232784      -0.02714675
Al      23.43479990      13.09807099      11.09645955       0.00614649      -0.00004029      -0.04702957
Al      23.43493489      15.12663462       9.02888874       0.00552229       0.00177427       0.04645826
Al      21.20000000      13.10000000      13.10000000      -0.00060143       0.00186909      -0.52992928
Al      21.20000000      15.12500000      15.12500000      -0.32788807      -0.00270240       0.63871402
Al      23.22500000      13.10000000      15.12500000       0.20670245       0.00234948       0.16949241
Al      23.22500000      15.12500000      13.10000000       0.63632354       0.01098166      -0.24259822
Al      21.20000000      17.15000000       5.00000000      -0.32804407       0.00743546      -0.63831995
Al      21.20000000      19.17500000       7.02500000      -0.06760006       0.06005083       0.55168174
Al      23.22500000      17.15000000       7.02500000       0.63316728       0.00831267       0.22992794
Al      23.22500000      19.17500000       5.00000000       0.20162040       0.03877527      -0.16778183
Al      21.26203704      17.15522029       9.06770028       0.00246708      -0.00186497       0.02858114
Al      21.23878348      19.17286637      11.05937974       0.00667906      -0.00019205      -0.02752914
Al      23.42956252      17.15871290      11.09409271       0.00387895       0.00130778      -0.04739113
Al      23.41208588      19.18311342       9.02359855       0.00115898       0.00047468       0.04694641
Al      21.20000000      17.15000000      13.10000000      -0.01277941      -0.00185590      -0.52148918