299
Lattice="28.224999999999998 0.0 0.0 0.0 28.224999999999998 0.0 0.0 0.0 20.125" Properties=species:S:1:pos:R:3:forces:R:3 energy=-16469.308115486445 pbc="T T T"
Al       5.00000000       5.00000000       5.00000000       0.32618497       0.32664425       0.33300140
Al       5.00000000       7.02500000       7.02500000      -0.49801831       0.24843254       0.37908777
Al       7.02500000       5.00000000       7.02500000       0.24405136      -0.49785653       0.37368987
Al       7.02500000       7.02500000       5.00000000       0.32463245       0.32591597      -0.58601528
Al       4.97739377       4.97710401       9.04811236      -0.01152998      -0.00966149       0.03722725
Al       4.88302972       7.04820612      11.07932923      -0.00340138       0.00246905      -0.01168061
Al       7.04657036       4.87384742      11.07999827      -0.00129841      -0.00221452      -0.01267930
Al       7.02874138       7.02712364       9.08085604      -0.00569163      -0.00131829       0.00657701
Al       5.00000000       5.00000000      13.10000000      -0.04942000      -0.04448353      -0.52567190
Al       5.00000000       7.02500000      15.12500000      -0.09189804       0.45647256       0.08440949
Al       7.02500000       5.00000000      15.12500000       0.45481348      -0.09220026       0.08378953
Al       7.02500000       7.02500000      13.10000000       0.15111126       0.15506339      -0.66693879
Al       5.00000000       9.05000000       5.00000000      -0.19719136      -0.03778468      -0.17341697
Al       5.00000000      11.07500000       7.02500000      -0.61641613      -0.00872769       0.25075064
Al       7.02500000       9.05000000       7.02500000       0.07593209      -0.04769603       0.55590354
Al       7.02500000      11.07500000       5.00000000       0.32896212      -0.00895442      -0.64175470
Al       4.82106922       9.04397792       9.02662251      -0.00081429       0.00674689       0.02116055
Al       4.79415130      11.06486644      11.09099019       0.00419170       0.00695829      -0.01520559
Al       6.99756237       9.06206408      11.05841994      -0.00151498       0.01043220       0.00115827
Al       6.97234222      11.07623113       9.07056832      -0.00129781       0.00773061       0.00978735
Al       5.00000000       9.05000000      13.10000000      -0.59175862      -0.02545750      -0.23932253
Al       5.00000000      11.07500000      15.12500000      -0.19848428      -0.00693090       0.17215617
Al       7.02500000       9.05000000      15.12500000       0.33177914      -0.03891375       0.63811337
Al       7.02500000      11.07500000      13.10000000       0.05259399       0.01355785      -0.55296814
Al       5.00000000      13.10000000       5.00000000      -0.20505724       0.00186573      -0.17318560
Al       5.00000000      15.12500000       7.02500000      -0.64243527       0.00894189       0.25192230
Al       7.02500000      13.10000000       7.02500000       0.04121934       0.00332893       0.58031770
Al       7.02500000      15.12500000       5.00000000       0.32826768      -0.00228142      -0.64236318
Al       4.78659978      13.09679338       9.03044741       0.00440708       0.00328512       0.02329462
Al       4.78871149      15.12739085      11.09251776       0.00757072      -0.00434604      -0.01282837
Al       6.95384544      13.09527221      11.05144780      -0.00390831       0.00461388       0.00878093
Al       6.95530038      15.12711536       9.06959913      -0.00535579      -0.00334797       0.00616874
Al       5.00000000      13.10000000      13.10000000      -0.63213991      -0.00879075      -0.25565071
Al       5.00000000      15.12500000      15.12500000      -0.19964470      -0.00229007       0.17121379
Al       7.02500000      13.10000000      15.12500000       0.33168427       0.00282777       0.63738414
Al       7.02500000      15.12500000      13.10000000      -0.02104014      -0.00373102      -0.52117867
Al       5.00000000      17.15000000       5.00000000      -0.20351683       0.00786077      -0.17426101
Al       5.00000000      19.17500000       7.02500000      -0.59686350       0.02809936       0.23504801
Al       7.02500000      17.15000000       7.02500000       0.05417598      -0.00505543       0.56418820
Al       7.02500000      19.17500000       5.00000000       0.32965479       0.04167888      -0.64142369
Al       4.79260502      17.16037250       9.03212285       0.00261525      -0.00681501       0.02557306
Al       4.81294460      19.18366383      11.09864352       0.00354874      -0.00781304      -0.01429256
Al       6.96026479      17.15664251      11.05365905       0.00276410      -0.00778535       0.00313847
Al       6.99484517      19.16658643       9.06739276       0.00150509      -0.00892646       0.01443947
Al       5.00000000      17.15000000      13.10000000      -0.62632843       0.00522580      -0.23729421
Al       5.00000000      19.17500000      15.12500000      -0.19321764       0.03630884       0.17090042
Al       7.02500000      17.15000000      15.12500000       0.33284664       0.00744008       0.63685464
Al       7.02500000      19.17500000      13.10000000       0.09133733       0.04528065      -0.56134197
Al       5.00000000      21.20000000       5.00000000      -0.09503279      -0.45403572      -0.08548027
Al       5.00000000      23.22500000       7.02500000      -0.04878992       0.04878992       0.52778245
Al       7.02500000      21.20000000       7.02500000       0.15576774      -0.15576774       0.66537198
Al       7.02500000      23.22500000       5.00000000       0.45403572       0.09503279      -0.08548027
Al       4.88123927      21.17655217       9.04462739      -0.00207873      -0.00138109       0.02011163
Al       4.98079151      23.24420849      11.07526667      -0.00790185       0.00790185      -0.03201395
Al       7.03420990      21.19079010      11.04521424      -0.00077829       0.00077829       0.00094220
Al       7.04844783      23.34376073       9.04462739       0.00138109       0.00207873       0.02011163
Al       5.00000000      21.20000000      13.10000000      -0.48742678      -0.24880979      -0.37434853
Al       5.00000000      23.22500000      15.12500000       0.32946223      -0.32946223      -0.33280429
Al       7.02500000      21.20000000      15.12500000       0.32842639      -0.32842639       0.58394439
Al       7.02500000      23.22500000      13.10000000       0.24880979       0.48742678      -0.37434853
Al       9.05000000       5.00000000       5.00000000      -0.03853304      -0.19787482      -0.17332661
Al       9.05000000       7.02500000       7.02500000      -0.05612703       0.07378363       0.55290684
Al      11.07500000       5.00000000       7.02500000      -0.00638945      -0.63059208       0.23645639
Al      11.07500000       7.02500000       5.00000000      -0.00879124       0.32982466      -0.64174106
Al       9.04257678       4.81317084       9.02543745       0.00282841      -0.00138491       0.02093585
Al       9.05275103       6.98632674      11.05770342       0.00471656       0.00225092      -0.00018439
Al      11.06590206       4.79522953      11.09158874       0.00453337       0.00149906      -0.01635588
Al      11.07009795       6.96372087       9.06912522       0.00451067      -0.00077146       0.00818209
Al       9.05000000       5.00000000      13.10000000      -0.02791603      -0.60494638      -0.22632307
Al       9.05000000       7.02500000      15.12500000      -0.04142997       0.33362644       0.63842791
Al      11.07500000       5.00000000      15.12500000      -0.00833432      -0.19984237       0.17414172
Al      11.07500000       7.02500000      13.10000000       0.00357325       0.02333349      -0.52753142
Al       9.05000000       9.05000000       5.00000000      -0.04416356      -0.04275188      -0.70208671
Al       9.05000000      11.07500000       7.02500000      -0.10607130       0.02004594       0.42364491
Al      11.07500000       9.05000000       7.02500000      -0.01206011      -0.10442888       0.41265620
Al      11.07500000      11.07500000       5.00000000      -0.01324303      -0.01228508      -0.70412964
Al       9.05269324       9.05394415       9.05311039       0.00400178       0.01120726       0.01512909
Al       9.05718963      11.09913022      11.07413415       0.00278560       0.00423956       0.00296294
Al      11.07287955       9.02847198      11.07207988      -0.00040355       0.01037249       0.00072100
Al      11.08348605      11.08766871       9.06120128       0.00332315       0.01252867       0.01261301
Al       9.05000000       9.05000000      13.10000000      -0.09678190      -0.07525287      -0.43873634
Al       9.05000000      11.07500000      15.12500000      -0.04467305      -0.00846840       0.69840116
Al      11.07500000       9.05000000      15.12500000      -0.01070418      -0.04198408       0.69737998
Al      11.07500000      11.07500000      13.10000000      -0.01688553       0.01851511      -0.37706155
Al       9.05000000      13.10000000       5.00000000      -0.04728807       0.00062767      -0.70516973
Al       9.05000000      15.12500000       7.02500000      -0.05575769      -0.00123776       0.47873409
Al      11.07500000      13.10000000       7.02500000       0.00383359       0.04203710       0.37057068
Al      11.07500000      15.12500000       5.00000000      -0.01171888      -0.00004720      -0.70552829
Al       9.04084395      13.11117571       9.06031122       0.00676676       0.00337983       0.01195345
Al       9.00485141      15.12506096      11.07547032       0.00706741       0.00140525       0.00580187
Al      11.14028153      13.17427004      11.09083057      -0.00070112      -0.00224759       0.01533620
Al      11.10743235      15.12556075       9.08440503       0.02326979       0.00179995       0.01969582
Al       9.05000000      13.10000000      13.10000000      -0.10589869       0.01981107      -0.42594724
Al       9.05000000      15.12500000      15.12500000      -0.04471020      -0.00092617       0.69473393
Al      11.07500000      13.10000000      15.12500000      -0.02294748      -0.00744571       0.71547288
Al      11.07500000      15.12500000      13.10000000       0.36252595       0.00827836      -0.48906584
Al       9.05000000      17.15000000       5.00000000      -0.04526131       0.01072526      -0.70451125
Al       9.05000000      19.17500000       7.02500000      -0.07222050       0.07222050       0.45842338
Al      11.07500000      17.15000000       7.02500000       0.01365448      -0.01365448       0.37797876
Al      11.07500000      19.17500000       5.00000000      -0.01072526       0.04526131      -0.70451125
Al       9.04830127      17.13884348       9.06046459       0.01195230      -0.00318376       0.01722582
Al       9.07090880      19.15409120      11.07475502       0.00958702      -0.00958702      -0.00149685
Al      11.14542152      17.07957848      11.08985760      -0.00257384       0.00257384       0.01442319
Al      11.08615652      19.17669873       9.06046459       0.00318376      -0.01195230       0.01722582
Al       9.05000000      17.15000000      13.10000000      -0.08902493      -0.00715701      -0.42715416
Al       9.05000000      19.17500000      15.12500000      -0.04119514       0.04119514       0.69821287
Al      11.07500000      17.15000000      15.12500000      -0.02109332       0.02109332       0.71464861
Al      11.07500000      19.17500000      13.10000000       0.00715701       0.08902493      -0.42715416
Al       9.05000000      21.20000000       5.00000000      -0.04167888      -0.32965479      -0.64142369
Al       9.05000000      23.22500000       7.02500000      -0.02809936       0.59686350       0.23504801
Al      11.07500000      21.20000000       7.02500000       0.00505543      -0.05417598       0.56418820
Al      11.07500000      23.22500000       5.00000000      -0.00786077       0.20351683      -0.17426101
Al       9.05841357      21.23015483       9.06739276       0.00892646      -0.00150509       0.01443947
Al       9.04133617      23.41205540      11.09864352       0.00781304      -0.00354874      -0.01429256
Al      11.06835749      21.26473521      11.05365905       0.00778535      -0.00276410       0.00313847
Al      11.06462750      23.43239498       9.03212285       0.00681501      -0.00261525       0.02557306
Al       9.05000000      21.20000000      13.10000000      -0.04528065      -0.09133733      -0.56134197
Al       9.05000000      23.22500000      15.12500000      -0.03630884       0.19321764       0.17090042
Al      11.07500000      21.20000000      15.12500000      -0.00744008      -0.33284664       0.63685464
Al      11.07500000      23.22500000      13.10000000      -0.00522580       0.62632843      -0.23729421
Al      13.10000000       5.00000000       5.00000000       0.00278605      -0.20506787      -0.17443912
Al      13.10000000       7.02500000       7.02500000       0.00354977       0.00187662       0.54144330
Al      15.12500000       5.00000000       7.02500000       0.01011071      -0.63655873       0.25424317
Al      15.12500000       7.02500000       5.00000000      -0.00027688       0.32891806      -0.64196115
Al      13.09748346       4.78912401       9.03127378       0.00481125       0.00214692       0.02098737
Al      13.09775628       6.95842323      11.05256154       0.00422269      -0.00474155       0.00596786
Al      15.12677872       4.78926120      11.09323174      -0.00036576       0.00400566      -0.01512928
Al      15.12765755       6.95719646       9.07110233       0.00038575      -0.00677697       0.00284301
Al      13.10000000       5.00000000      13.10000000      -0.00954471      -0.62972804      -0.25611905
Al      13.10000000       7.02500000      15.12500000       0.00179967       0.33237976       0.64030441
Al      15.12500000       5.00000000      15.12500000      -0.00179412      -0.20174233       0.17337495
Al      15.12500000       7.02500000      13.10000000      -0.00318125       0.00932775      -0.54329597
Al      13.10000000       9.05000000       5.00000000       0.00168514      -0.04688136      -0.70265335
Al      13.10000000      11.07500000       7.02500000      -0.00590825       0.05877387       0.42027558
Al      15.12500000       9.05000000       7.02500000      -0.00030778      -0.12112553       0.41131918
Al      15.12500000      11.07500000       5.00000000       0.00111279      -0.01410537      -0.70456970
Al      13.09975555       9.02231767       9.04964305       0.00059469       0.00507329       0.00789582
Al      13.10029669      11.04648428      11.07672914      -0.00039462       0.01424351       0.00431008
Al      15.12751331       9.02085962      11.07203921       0.00139562       0.00544483       0.00352468
Al      15.11272067      11.08330933       9.06006916      -0.00184008       0.01443854       0.01040189
Al      13.10000000       9.05000000      13.10000000       0.00147397      -0.18426115      -0.35208361
Al      13.10000000      11.07500000      15.12500000      -0.00062969      -0.01075990       0.69477062
Al      15.12500000       9.05000000      15.12500000      -0.00161335      -0.04420827       0.69857006
Al      15.12500000      11.07500000      13.10000000      -0.01337124       0.00818378      -0.36534661
Al      13.10000000      13.10000000       5.00000000      -0.00019405       0.00206297      -0.70656440
Al      13.10000000      15.12500000       7.02500000      -0.00951595       0.00951595       0.08438188
Al      15.12500000      13.10000000       7.02500000      -0.04073412       0.04073412       0.36061981
Al      15.12500000      15.12500000       5.00000000      -0.00206297       0.00019405      -0.70656440
Al      13.09805020      13.14163936       9.08547955      -0.00032534       0.02100325       0.01691304
Al      15.05031071      13.17468929      11.09141406       0.00290655      -0.00290655       0.01603340
Al      15.08336064      15.12694980       9.08547955      -0.02100325       0.00032534       0.01691304
Al      13.10000000      13.10000000      13.10000000      -0.01703843       0.39306260      -0.47384122
Al      13.10000000      15.12500000      15.12500000      -0.00089632       0.00089632       0.85463336
Al      15.12500000      13.10000000      15.12500000       0.00776176      -0.00776176       0.71656624
Al      15.12500000      15.12500000      13.10000000      -0.39306260       0.01703843      -0.47384122
Al      13.10000000      17.15000000       5.00000000       0.00004720       0.01171888      -0.70552829
Al      13.10000000      19.17500000       7.02500000       0.00123776       0.05575769       0.47873409
Al      15.12500000      17.15000000       7.02500000      -0.04203710      -0.00383359       0.37057068
Al      15.12500000      19.17500000       5.00000000      -0.00062767       0.04728807      -0.70516973
Al      13.09943925      17.11756765       9.08440503      -0.00179995      -0.02326979       0.01969582
Al      13.09993904      19.22014859      11.07547032      -0.00140525      -0.00706741       0.00580187
Al      15.05072996      17.08471847      11.09083057       0.00224759       0.00070112       0.01533620
Al      15.11382429      19.18415605       9.06031122      -0.00337983      -0.00676676       0.01195345
Al      13.10000000      17.15000000      13.10000000      -0.00827836      -0.36252595      -0.48906584
Al      13.10000000      19.17500000      15.12500000       0.00092617       0.04471020       0.69473393
Al      15.12500000      17.15000000      15.12500000       0.00744571       0.02294748       0.71547288
Al      15.12500000      19.17500000      13.10000000      -0.01981107       0.10589869      -0.42594724
Al      13.10000000      21.20000000       5.00000000       0.00228142      -0.32826768      -0.64236318
Al      13.10000000      23.22500000       7.02500000      -0.00894189       0.64243527       0.25192230
Al      15.12500000      21.20000000       7.02500000      -0.00332893      -0.04121934       0.58031770
Al      15.12500000      23.22500000       5.00000000      -0.00186573       0.20505724      -0.17318560
Al      13.09788464      21.26969962       9.06959913       0.00334797       0.00535579       0.00616874
Al      13.09760915      23.43628851      11.09251776       0.00434604      -0.00757072      -0.01282837
Al      15.12972779      21.27115456      11.05144780      -0.00461388       0.00390831       0.00878093
Al      15.12820662      23.43840022       9.03044741      -0.00328512      -0.00440708       0.02329462
Al      13.10000000      21.20000000      13.10000000       0.00373102       0.02104014      -0.52117867
Al      13.10000000      23.22500000      15.12500000       0.00229007       0.19964470       0.17121379
Al      15.12500000      21.20000000      15.12500000      -0.00282777      -0.33168427       0.63738414
Al      15.12500000      23.22500000      13.10000000       0.00879075       0.63213991      -0.25565071
Al      17.15000000       5.00000000       5.00000000       0.00984970      -0.20239172      -0.17420984
Al      17.15000000       7.02500000       7.02500000      -0.00196551       0.03506421       0.54414247
Al      19.17500000       5.00000000       7.02500000       0.02994509      -0.60082639       0.23571018
Al      19.17500000       7.02500000       5.00000000       0.04326567       0.32990410      -0.63936994
Al      17.15888767       4.79414873       9.03294344      -0.00034859       0.00114777       0.02143730
Al      17.15423303       6.96408064      11.05431278      -0.00160735      -0.00045824       0.00098345
Al      19.18214040       4.81456191      11.09865776      -0.00168102       0.00141549      -0.01611673
Al      19.16860988       6.99122102       9.06716895      -0.00229560      -0.00145211       0.00508518
Al      17.15000000       5.00000000      13.10000000       0.00616671      -0.62493095      -0.24036087
Al      17.15000000       7.02500000      15.12500000       0.00869880       0.33236739       0.63955359
Al      19.17500000       5.00000000      15.12500000       0.03784024      -0.19471275       0.17194784
Al      19.17500000       7.02500000      13.10000000       0.05234670       0.07683421      -0.55484647
Al      17.15000000       9.05000000       5.00000000       0.01246333      -0.04601070      -0.70166021
Al      17.15000000      11.07500000       7.02500000      -0.00024543       0.00024543       0.37253759
Al      19.17500000       9.05000000       7.02500000       0.09367080      -0.09367080       0.43559883
Al      19.17500000      11.07500000       5.00000000       0.04601070      -0.01246333      -0.70166021
Al      17.14375181       9.04068657       9.05362222       0.00277577       0.00403238       0.00996294
Al      17.12802741      11.09697259      11.07418588      -0.00306401       0.00306401       0.00376003
Al      19.16844007       9.05655993      11.07302160      -0.00398606       0.00398606      -0.00307210
Al      19.18431343      11.08124819       9.05362222      -0.00403238      -0.00277577       0.00996294
Al      17.15000000       9.05000000      13.10000000       0.00364792      -0.10935834      -0.40224656
Al      17.15000000      11.07500000      15.12500000       0.01132495      -0.01132495       0.69884462
Al      19.17500000       9.05000000      15.12500000       0.04194027      -0.04194027       0.69960604
Al      19.17500000      11.07500000      13.10000000       0.10935834      -0.00364792      -0.40224656
Al      17.15000000      13.10000000       5.00000000       0.01410537      -0.00111279      -0.70456970
Al      17.15000000      15.12500000       7.02500000      -0.05877387       0.00590825       0.42027558
Al      19.17500000      13.10000000       7.02500000       0.12112553       0.00030778       0.41131918
Al      19.17500000      15.12500000       5.00000000       0.04688136      -0.00168514      -0.70265335
Al      17.14169067      13.11227933       9.06006916      -0.01443854       0.00184008       0.01040189
Al      17.17851572      15.12470331      11.07672914      -0.01424351       0.00039462       0.00431008
Al      19.20414038      13.09748669      11.07203921      -0.00544483      -0.00139562       0.00352468
Al      19.20268233      15.12524445       9.04964305      -0.00507329      -0.00059469       0.00789582
Al      17.15000000      13.10000000      13.10000000      -0.00818378       0.01337124      -0.36534661
Al      17.15000000      15.12500000      15.12500000       0.01075990       0.00062969       0.69477062
Al      19.17500000      13.10000000      15.12500000       0.04420827       0.00161335       0.69857006
Al      19.17500000      15.12500000      13.10000000       0.18426115      -0.00147397      -0.35208361
Al      17.15000000      17.15000000       5.00000000       0.01228508       0.01324303      -0.70412964
Al      17.15000000      19.17500000       7.02500000      -0.02004594       0.10607130       0.42364491
Al      19.17500000      17.15000000       7.02500000       0.10442888       0.01206011       0.41265620
Al      19.17500000      19.17500000       5.00000000       0.04275188       0.04416356      -0.70208671
Al      17.13733129      17.14151395       9.06120128      -0.01252867      -0.00332315       0.01261301
Al      17.12586978      19.16781037      11.07413415      -0.00423956      -0.00278560       0.00296294
Al      19.19652802      17.15212045      11.07207988      -0.01037249       0.00040355       0.00072100
Al      19.17105585      19.17230676       9.05311039      -0.01120726      -0.00400178       0.01512909
Al      17.15000000      17.15000000      13.10000000      -0.01851511       0.01688553      -0.37706155
Al      17.15000000      19.17500000      15.12500000       0.00846840       0.04467305       0.69840116
Al      19.17500000      17.15000000      15.12500000       0.04198408       0.01070418       0.69737998
Al      19.17500000      19.17500000      13.10000000       0.07525287       0.09678190      -0.43873634
Al      17.15000000      21.20000000       5.00000000       0.00895442      -0.32896212      -0.64175470
Al      17.15000000      23.22500000       7.02500000       0.00872769       0.61641613       0.25075064
Al      19.17500000      21.20000000       7.02500000       0.04769603      -0.07593209       0.55590354
Al      19.17500000      23.22500000       5.00000000       0.03778468       0.19719136      -0.17341697
Al      17.14876887      21.25265778       9.07056832      -0.00773061       0.00129781       0.00978735
Al      17.16013356      23.43084870      11.09099019      -0.00695829      -0.00419170      -0.01520559
Al      19.16293592      21.22743763      11.05841994      -0.01043220       0.00151498       0.00115827
Al      19.18102208      23.40393078       9.02662251      -0.00674689       0.00081429       0.02116055
Al      17.15000000      21.20000000      13.10000000      -0.01355785      -0.05259399      -0.55296814
Al      17.15000000      23.22500000      15.12500000       0.00693090       0.19848428       0.17215617
Al      19.17500000      21.20000000      15.12500000       0.03891375      -0.33177914       0.63811337
Al      19.17500000      23.22500000      13.10000000       0.02545750       0.59175862      -0.23932253
Al      21.20000000       5.00000000       5.00000000      -0.45409057      -0.09324471      -0.08379486
Al      21.20000000       7.02500000       7.02500000      -0.14968977       0.14968977       0.66843076
Al      23.22500000       5.00000000       7.02500000       0.04770067      -0.04770067       0.52657529
Al      23.22500000       7.02500000       5.00000000       0.09324471       0.45409057      -0.08379486
Al      21.17792899       4.87806290       9.04530132       0.00113353      -0.00221508       0.01496584
Al      21.19624034       7.02875966      11.04412364       0.00333246      -0.00333246       0.00154504
Al      23.24764741       4.97735259      11.07700749       0.00877203      -0.00877203      -0.03526434
Al      23.34693710       7.04707101       9.04530132       0.00221508      -0.00113353       0.01496584
Al      21.20000000       5.00000000      13.10000000      -0.24776923      -0.49404130      -0.37623379
Al      21.20000000       7.02500000      15.12500000      -0.32699139       0.32699139       0.58434517
Al      23.22500000       5.00000000      15.12500000      -0.32806479       0.32806479      -0.33401399
Al      23.22500000       7.02500000      13.10000000       0.49404130       0.24776923      -0.37623379
Al      21.20000000       9.05000000       5.00000000      -0.32990410      -0.04326567      -0.63936994
Al      21.20000000      11.07500000       7.02500000      -0.03506421       0.00196551       0.54414247
Al      23.22500000       9.05000000       7.02500000       0.60082639      -0.02994509       0.23571018
Al      23.22500000      11.07500000       5.00000000       0.20239172      -0.00984970      -0.17420984
Al      21.23377898       9.05639012       9.06716895       0.00145211       0.00229560       0.00508518
Al      21.26091936      11.07076697      11.05431278       0.00045824       0.00160735       0.00098345
Al      23.41043809       9.04285960      11.09865776      -0.00141549       0.00168102      -0.01611673
Al      23.43085127      11.06611233       9.03294344      -0.00114777       0.00034859       0.02143730
Al      21.20000000       9.05000000      13.10000000      -0.07683421      -0.05234670      -0.55484647
Al      21.20000000      11.07500000      15.12500000      -0.33236739      -0.00869880       0.63955359
Al      23.22500000       9.05000000      15.12500000       0.19471275      -0.03784024       0.17194784
Al      23.22500000      11.07500000      13.10000000       0.62493095      -0.00616671      -0.24036087
Al      21.20000000      13.10000000       5.00000000      -0.32891806       0.00027688      -0.64196115
Al      21.20000000      15.12500000       7.02500000      -0.00187662      -0.00354977       0.54144330
Al      23.22500000      13.10000000       7.02500000       0.63655873      -0.01011071       0.25424317
Al      23.22500000      15.12500000       5.00000000       0.20506787      -0.00278605      -0.17443912
Al      21.26780354      13.09734245       9.07110233       0.00677697      -0.00038575       0.00284301
Al      21.26657677      15.12724372      11.05256154       0.00474155      -0.00422269       0.00596786
Al      23.43573880      13.09822128      11.09323174      -0.00400566       0.00036576      -0.01512928
Al      23.43587599      15.12751654       9.03127378      -0.00214692      -0.00481125       0.02098737
Al      21.20000000      13.10000000      13.10000000      -0.00932775       0.00318125      -0.54329597
Al      21.20000000      15.12500000      15.12500000      -0.33237976      -0.00179967       0.64030441
Al      23.22500000      13.10000000      15.12500000       0.20174233       0.00179412       0.17337495
Al      23.22500000      15.12500000      13.10000000       0.62972804       0.00954471      -0.25611905
Al      21.20000000      17.15000000       5.00000000      -0.32982466       0.00879124      -0.64174106
Al      21.20000000      19.17500000       7.02500000      -0.07378363       0.05612703       0.55290684
Al      23.22500000      17.15000000       7.02500000       0.63059208       0.00638945       0.23645639
Al      23.22500000      19.17500000       5.00000000       0.19787482       0.03853304      -0.17332661
Al      21.26127913      17.15490205       9.06912522       0.00077146      -0.00451067       0.00818209
Al      21.23867326      19.17224897      11.05770342      -0.00225092      -0.00471656      -0.00018439
Al      23.42977047      17.15909794      11.09158874      -0.00149906      -0.00453337      -0.01635588
Al      23.41182916      19.18242322       9.02543745       0.00138491      -0.00282841       0.02093585
Al      21.20000000      17.15000000      13.10000000      -0.02333349      -0.00357325      -0.52753142