299
Lattice="28.224999999999998 0.0 0.0 0.0 28.224999999999998 0.0 0.0 0.0 20.125" Properties=species:S:1:pos:R:3:forces:R:3 energy=-16469.301720279924 pbc="T T T"
Al       5.00000000       5.00000000       5.00000000       0.33637122       0.33854348       0.33396485
Al       5.00000000       7.02500000       7.02500000      -0.49207206       0.22045364       0.40463053
Al       7.02500000       5.00000000       7.02500000       0.21563301      -0.48685331       0.40310920
Al       7.02500000       7.02500000       5.00000000       0.30988905       0.30938442      -0.58169419
Al       4.97829039       4.97920101       9.06778575      -0.01770274      -0.01310793      -0.01224603
Al       4.87406486       7.05290500      11.08012862       0.02772615      -0.00710844       0.00283567
Al       7.04946172       4.86939986      11.08012914      -0.01450620       0.01195825       0.00243712
Al       7.02567792       7.02685488       9.08480393      -0.00354388      -0.00347852       0.00056281
Al       5.00000000       5.00000000      13.10000000      -0.03166824      -0.02413208      -0.53660810
Al       5.00000000       7.02500000      15.12500000      -0.07665167       0.45477082       0.06997441
Al       7.02500000       5.00000000      15.12500000       0.45018670      -0.07472035       0.07071522
Al       7.02500000       7.02500000      13.10000000       0.13918628       0.15376513      -0.68921980
Al       5.00000000       9.05000000       5.00000000      -0.19370152      -0.04521298      -0.16464223
Al       5.00000000      11.07500000       7.02500000      -0.61167740      -0.00613631       0.23624078
Al       7.02500000       9.05000000       7.02500000       0.05937970      -0.05701375       0.58600774
Al       7.02500000      11.07500000       5.00000000       0.30551641      -0.01748385      -0.63621126
Al       4.81417423       9.04768892       9.02584923       0.00701665      -0.01801506       0.03595107
Al       4.79531906      11.06710199      11.08864675      -0.02580524      -0.00960838       0.00490090
Al       6.99489046       9.06508361      11.05551063       0.00167932      -0.00547514       0.03343447
Al       6.97144178      11.08041272       9.06860677       0.00255520      -0.02593730       0.04002499
Al       5.00000000       9.05000000      13.10000000      -0.57121507      -0.00636420      -0.22067500
Al       5.00000000      11.07500000      15.12500000      -0.17595196      -0.00668274       0.15748578
Al       7.02500000       9.05000000      15.12500000       0.31806692      -0.03697499       0.62590773
Al       7.02500000      11.07500000      13.10000000       0.03928632       0.01087943      -0.54484739
Al       5.00000000      13.10000000       5.00000000      -0.19810828      -0.00389806      -0.16693357
Al       5.00000000      15.12500000       7.02500000      -0.64334103       0.00662951       0.23378068
Al       7.02500000      13.10000000       7.02500000       0.02311288      -0.00363155       0.56809839
Al       7.02500000      15.12500000       5.00000000       0.29908115      -0.00484432      -0.64102415
Al       4.79397388      13.09797437       9.03160595      -0.06795695      -0.01163004       0.02987041
Al       4.79699643      15.12524563      11.09071066      -0.05923125       0.00953460       0.01258440
Al       6.95182346      13.09614676      11.05341291       0.02451795      -0.01075183       0.01885822
Al       6.95432636      15.12534686       9.06704796       0.01082473       0.01132253       0.04842623
Al       5.00000000      13.10000000      13.10000000      -0.61422179      -0.01136626      -0.22199628
Al       5.00000000      15.12500000      15.12500000      -0.17218445      -0.00065987       0.15674202
Al       7.02500000      13.10000000      15.12500000       0.31720550       0.00502285       0.62256917
Al       7.02500000      15.12500000      13.10000000      -0.03291296       0.00125463      -0.48492899
Al       5.00000000      17.15000000       5.00000000      -0.20015611       0.00941473      -0.16925188
Al       5.00000000      19.17500000       7.02500000      -0.59621477       0.01673530       0.22991537
Al       7.02500000      17.15000000       7.02500000       0.03251496      -0.00304467       0.57485597
Al       7.02500000      19.17500000       5.00000000       0.30429083       0.04737336      -0.64252035
Al       4.79475299      17.15742608       9.03369062      -0.04432644       0.01107091       0.03719473
Al       4.80687253      19.18074205      11.09845999       0.00908150       0.01204500       0.00029558
Al       6.95664607      17.15403468      11.05427366       0.03243002       0.01125470       0.02429956
Al       6.99301662      19.16389950       9.06901816       0.00141371       0.00657161       0.02804321
Al       5.00000000      17.15000000      13.10000000      -0.60615508      -0.00276174      -0.20967483
Al       5.00000000      19.17500000      15.12500000      -0.17264557       0.03646911       0.15655295
Al       7.02500000      17.15000000      15.12500000       0.32308557       0.00815112       0.62037612
Al       7.02500000      19.17500000      13.10000000       0.08185050       0.04647836      -0.57042746
Al       5.00000000      21.20000000       5.00000000      -0.09377415      -0.44387657      -0.07983143
Al       5.00000000      23.22500000       7.02500000      -0.04035387       0.04035387       0.54573333
Al       7.02500000      21.20000000       7.02500000       0.13777699      -0.13777699       0.69871365
Al       7.02500000      23.22500000       5.00000000       0.44387657       0.09377415      -0.07983143
Al       4.87481204      21.17301620       9.04475516       0.01567173       0.01355061       0.02508467
Al       4.98095245      23.24404755      11.05713457      -0.00026640       0.00026640       0.02851928
Al       7.03337770      21.19162230      11.04063334      -0.00656187       0.00656187       0.03958780
Al       7.05198380      23.35018796       9.04475516      -0.01355061      -0.01567173       0.02508467
Al       5.00000000      21.20000000      13.10000000      -0.46596650      -0.22930518      -0.39317521
Al       5.00000000      23.22500000      15.12500000       0.34810250      -0.34810250      -0.33613696
Al       7.02500000      21.20000000      15.12500000       0.32385845      -0.32385845       0.57287156
Al       7.02500000      23.22500000      13.10000000       0.22930518       0.46596650      -0.39317521
Al       9.05000000       5.00000000       5.00000000      -0.04298117      -0.19136330      -0.16461302
Al       9.05000000       7.02500000       7.02500000      -0.06756004       0.05927668       0.58119515
Al      11.07500000       5.00000000       7.02500000       0.00179893      -0.62697350       0.21930823
Al      11.07500000       7.02500000       5.00000000      -0.01050365       0.30662984      -0.63444300
Al       9.04542041       4.80940715       9.02514837      -0.02403499      -0.01036453       0.03295557
Al       9.05327261       6.98233446      11.05457561       0.00194256       0.02840845       0.03315716
Al      11.06947926       4.79871990      11.08944081      -0.02047915      -0.03591125      -0.00224636
Al      11.07267079       6.96032276       9.06714268      -0.01329445       0.02563962       0.03104007
Al       9.05000000       5.00000000      13.10000000      -0.01485652      -0.58670950      -0.21269006
Al       9.05000000       7.02500000      15.12500000      -0.04516567       0.32300540       0.62712676
Al      11.07500000       5.00000000      15.12500000      -0.01209674      -0.18003161       0.16250625
Al      11.07500000       7.02500000      13.10000000      -0.00801434       0.01539053      -0.52564086
Al       9.05000000       9.05000000       5.00000000      -0.05028680      -0.05311715      -0.69955227
Al       9.05000000      11.07500000       7.02500000      -0.10226237       0.00950130       0.44717287
Al      11.07500000       9.05000000       7.02500000      -0.01571712      -0.11036340       0.43352595
Al      11.07500000      11.07500000       5.00000000      -0.01607172      -0.02378442      -0.69939970
Al       9.05492744       9.05645717       9.05716662      -0.01492827      -0.01155494      -0.01121744
Al       9.05915347      11.10354036      11.07327788      -0.00158219      -0.00628455       0.03548875
Al      11.07628803       9.02789956      11.06989963      -0.02379856       0.00750392       0.04361114
Al      11.09057983      11.09368861       9.06157253      -0.03446879      -0.01710263       0.02894617
Al       9.05000000       9.05000000      13.10000000      -0.10175136      -0.08061815      -0.46290631
Al       9.05000000      11.07500000      15.12500000      -0.04758114      -0.00572048       0.68591626
Al      11.07500000       9.05000000      15.12500000      -0.01525182      -0.03971093       0.68600853
Al      11.07500000      11.07500000      13.10000000      -0.02682420       0.02485505      -0.36825194
Al       9.05000000      13.10000000       5.00000000      -0.05549863      -0.00939268      -0.70740190
Al       9.05000000      15.12500000       7.02500000      -0.05568938      -0.00087911       0.48027260
Al      11.07500000      13.10000000       7.02500000       0.00113240       0.03091036       0.36007482
Al      11.07500000      15.12500000       5.00000000      -0.01342150      -0.00178529      -0.70376044
Al       9.04345471      13.11557103       9.06164764      -0.00909958      -0.02845280       0.02960380
Al       9.00582926      15.12338263      11.07852677      -0.00561591       0.01591694       0.01805968
Al      11.14843230      13.17928616      11.09287920      -0.04400166      -0.02894426       0.04310614
Al      11.11491833      15.12258905       9.08252407      -0.04321257       0.02599414       0.04106780
Al       9.05000000      13.10000000      13.10000000      -0.09653919       0.01614612      -0.40728516
Al       9.05000000      15.12500000      15.12500000      -0.04482187       0.00466198       0.68025415
Al      11.07500000      13.10000000      15.12500000      -0.02653333      -0.00375523       0.69782217
Al      11.07500000      15.12500000      13.10000000       0.35578620       0.01795414      -0.42884506
Al       9.05000000      17.15000000       5.00000000      -0.05349252       0.01281109      -0.70759900
Al       9.05000000      19.17500000       7.02500000      -0.07573274       0.07573274       0.50018245
Al      11.07500000      17.15000000       7.02500000       0.01321964      -0.01321964       0.39229720
Al      11.07500000      19.17500000       5.00000000      -0.01281109       0.05349252      -0.70759900
Al       9.05050171      17.13306908       9.06254957       0.00064454       0.02435642       0.03246269
Al       9.07262316      19.15237684      11.07099037       0.00939773      -0.00939773       0.06133617
Al      11.15194637      17.07305363      11.09091868      -0.03907787       0.03907787       0.05330252
Al      11.09193092      19.17449829       9.06254957      -0.02435642      -0.00064454       0.03246269
Al       9.05000000      17.15000000      13.10000000      -0.07921186       0.00412847      -0.42411333
Al       9.05000000      19.17500000      15.12500000      -0.04058089       0.04058089       0.68530630
Al      11.07500000      17.15000000      15.12500000      -0.02349527       0.02349527       0.69276781
Al      11.07500000      19.17500000      13.10000000      -0.00412847       0.07921186      -0.42411333
Al       9.05000000      21.20000000       5.00000000      -0.04737336      -0.30429083      -0.64252035
Al       9.05000000      23.22500000       7.02500000      -0.01673530       0.59621477       0.22991537
Al      11.07500000      21.20000000       7.02500000       0.00304467      -0.03251496       0.57485597
Al      11.07500000      23.22500000       5.00000000      -0.00941473       0.20015611      -0.16925188
Al       9.06110050      21.23198338       9.06901816      -0.00657161      -0.00141371       0.02804321
Al       9.04425795      23.41812747      11.09845999      -0.01204500      -0.00908150       0.00029558
Al      11.07096532      21.26835393      11.05427366      -0.01125470      -0.03243002       0.02429956
Al      11.06757392      23.43024701       9.03369062      -0.01107091       0.04432644       0.03719473
Al       9.05000000      21.20000000      13.10000000      -0.04647836      -0.08185050      -0.57042746
Al       9.05000000      23.22500000      15.12500000      -0.03646911       0.17264557       0.15655295
Al      11.07500000      21.20000000      15.12500000      -0.00815112      -0.32308557       0.62037612
Al      11.07500000      23.22500000      13.10000000       0.00276174       0.60615508      -0.20967483
Al      13.10000000       5.00000000       5.00000000       0.00405303      -0.19228766      -0.16625902
Al      13.10000000       7.02500000       7.02500000       0.00435657      -0.01182911       0.52696735
Al      15.12500000       5.00000000       7.02500000       0.01705162      -0.63107851       0.22838955
Al      15.12500000       7.02500000       5.00000000       0.00658923       0.30499043      -0.63381266
Al      13.09974342       4.79824632       9.03307608      -0.00855124      -0.06920902       0.01534332
Al      13.09999013       6.95789008      11.05488497      -0.01687055       0.01256102       0.00204157
Al      15.12544804       4.79823062      11.09153326       0.01506824      -0.06361966      -0.00011768
Al      15.12719862       6.95534538       9.06815324       0.01643669       0.01970047       0.02545844
Al      13.10000000       5.00000000      13.10000000      -0.01130086      -0.61501926      -0.22763194
Al      13.10000000       7.02500000      15.12500000      -0.00242193       0.31839972       0.62921183
Al      15.12500000       5.00000000      15.12500000      -0.00132950      -0.18308814       0.16295227
Al      15.12500000       7.02500000      13.10000000       0.00299810       0.00097110      -0.51997925
Al      13.10000000       9.05000000       5.00000000       0.00309927      -0.05817742      -0.70038160
Al      13.10000000      11.07500000       7.02500000      -0.00752028       0.04607447       0.40372129
Al      15.12500000       9.05000000       7.02500000       0.00940742      -0.12720808       0.40858547
Al      15.12500000      11.07500000       5.00000000       0.01125607      -0.02490053      -0.69988867
Al      13.10206231       9.02307292       9.05054048      -0.01643678      -0.01363193       0.00494377
Al      13.10343127      11.05144601      11.08192587      -0.02829410      -0.01916827      -0.00414743
Al      15.12665875       9.02069396      11.07119444       0.01575177      -0.00377390       0.03112764
Al      15.10806050      11.08967161       9.05952755       0.03522552      -0.02393893       0.02505237
Al      13.10000000       9.05000000      13.10000000      -0.00671604      -0.18593931      -0.33274644
Al      13.10000000      11.07500000      15.12500000      -0.00783508      -0.00679308       0.68073321
Al      15.12500000       9.05000000      15.12500000      -0.00302836      -0.04395983       0.69091712
Al      15.12500000      11.07500000      13.10000000      -0.00875959       0.01103626      -0.33143983
Al      13.10000000      13.10000000       5.00000000       0.00125298      -0.00777615      -0.70452992
Al      13.10000000      15.12500000       7.02500000      -0.01245445       0.01245445       0.03589084
Al      15.12500000      13.10000000       7.02500000      -0.02713982       0.02713982       0.31848061
Al      15.12500000      15.12500000       5.00000000       0.00777615      -0.00125298      -0.70452992
Al      13.10192155      13.14605172       9.08173213      -0.03255541      -0.03818584       0.04701447
Al      15.04573373      13.17926627      11.09496783       0.02216425      -0.02216425       0.03028864
Al      15.07894828      15.12307845       9.08173213       0.03818584       0.03255541       0.04701447
Al      13.10000000      13.10000000      13.10000000      -0.02675589       0.40099370      -0.39881538
Al      13.10000000      15.12500000      15.12500000      -0.00857040       0.00857040       0.83923738
Al      15.12500000      13.10000000      15.12500000       0.00437135      -0.00437135       0.70397949
Al      15.12500000      15.12500000      13.10000000      -0.40099370       0.02675589      -0.39881538
Al      13.10000000      17.15000000       5.00000000       0.00178529       0.01342150      -0.70376044
Al      13.10000000      19.17500000       7.02500000       0.00087911       0.05568938       0.48027260
Al      15.12500000      17.15000000       7.02500000      -0.03091036      -0.00113240       0.36007482
Al      15.12500000      19.17500000       5.00000000       0.00939268       0.05549863      -0.70740190
Al      13.10241095      17.11008167       9.08252407      -0.02599414       0.04321257       0.04106780
Al      13.10161737      19.21917074      11.07852677      -0.01591694       0.00561591       0.01805968
Al      15.04571384      17.07656770      11.09287920       0.02894426       0.04400166       0.04310614
Al      15.10942897      19.18154529       9.06164764       0.02845280       0.00909958       0.02960380
Al      13.10000000      17.15000000      13.10000000      -0.01795414      -0.35578620      -0.42884506
Al      13.10000000      19.17500000      15.12500000      -0.00466198       0.04482187       0.68025415
Al      15.12500000      17.15000000      15.12500000       0.00375523       0.02653333       0.69782217
Al      15.12500000      19.17500000      13.10000000      -0.01614612       0.09653919      -0.40728516
Al      13.10000000      21.20000000       5.00000000       0.00484432      -0.29908115      -0.64102415
Al      13.10000000      23.22500000       7.02500000      -0.00662951       0.64334103       0.23378068
Al      15.12500000      21.20000000       7.02500000       0.00363155      -0.02311288       0.56809839
Al      15.12500000      23.22500000       5.00000000       0.00389806       0.19810828      -0.16693357
Al      13.09965314      21.27067364       9.06704796      -0.01132253      -0.01082473       0.04842623
Al      13.09975437      23.42800357      11.09071066      -0.00953460       0.05923125       0.01258440
Al      15.12885324      21.27317654      11.05341291       0.01075183      -0.02451795       0.01885822
Al      15.12702563      23.43102612       9.03160595       0.01163004       0.06795695       0.02987041
Al      13.10000000      21.20000000      13.10000000      -0.00125463       0.03291296      -0.48492899
Al      13.10000000      23.22500000      15.12500000       0.00065987       0.17218445       0.15674202
Al      15.12500000      21.20000000      15.12500000      -0.00502285      -0.31720550       0.62256917
Al      15.12500000      23.22500000      13.10000000       0.01136626       0.61422179      -0.22199628
Al      17.15000000       5.00000000       5.00000000       0.01643540      -0.18841562      -0.16303912
Al      17.15000000       7.02500000       7.02500000       0.01501387       0.02244742       0.54898248
Al      19.17500000       5.00000000       7.02500000       0.02015199      -0.58655257       0.22465861
Al      19.17500000       7.02500000       5.00000000       0.05031979       0.31041210      -0.62940504
Al      17.15653671       4.79757379       9.03485925       0.02430728      -0.04358341       0.01748705
Al      17.15287970       6.96083243      11.05525933       0.01363701       0.02584517       0.00221680
Al      19.17971224       4.80973342      11.09887022       0.02297584      -0.00098988      -0.01911850
Al      19.16771932       6.98813917       9.06969292       0.00608978       0.01093130      -0.01498592
Al      17.15000000       5.00000000      13.10000000       0.00152706      -0.61238354      -0.22090312
Al      17.15000000       7.02500000      15.12500000       0.01022544       0.31775231       0.62791925
Al      19.17500000       5.00000000      15.12500000       0.04234071      -0.18342858       0.15986371
Al      19.17500000       7.02500000      13.10000000       0.06018872       0.06792916      -0.57624603
Al      17.15000000       9.05000000       5.00000000       0.02129610      -0.05466578      -0.69397738
Al      17.15000000      11.07500000       7.02500000       0.00792804      -0.00792804       0.37998591
Al      19.17500000       9.05000000       7.02500000       0.10207264      -0.10207264       0.47283936
Al      19.17500000      11.07500000       5.00000000       0.05466578      -0.02129610      -0.69397738
Al      17.13913311       9.04281171       9.05536182       0.03756708      -0.01921786      -0.00906504
Al      17.12263443      11.10236557      11.07599306       0.01614547      -0.01614547       0.00853977
Al      19.16654468       9.05845532      11.06855414       0.01344609      -0.01344609       0.04701626
Al      19.18218829      11.08586689       9.05536182       0.01921786      -0.03756708      -0.00906504
Al      17.15000000       9.05000000      13.10000000       0.01132122      -0.11212006      -0.40972043
Al      17.15000000      11.07500000      15.12500000       0.01054146      -0.01054146       0.68672112
Al      19.17500000       9.05000000      15.12500000       0.04442528      -0.04442528       0.69113374
Al      19.17500000      11.07500000      13.10000000       0.11212006      -0.01132122      -0.40972043
Al      17.15000000      13.10000000       5.00000000       0.02490053      -0.01125607      -0.69988867
Al      17.15000000      15.12500000       7.02500000      -0.04607447       0.00752028       0.40372129
Al      19.17500000      13.10000000       7.02500000       0.12720808      -0.00940742       0.40858547
Al      19.17500000      15.12500000       5.00000000       0.05817742      -0.00309927      -0.70038160
Al      17.13532839      13.11693950       9.05952755       0.02393893      -0.03522552       0.02505237
Al      17.17355399      15.12156873      11.08192587       0.01916827       0.02829410      -0.00414743
Al      19.20430604      13.09834125      11.07119444       0.00377390      -0.01575177       0.03112764
Al      19.20192708      15.12293769       9.05054048       0.01363193       0.01643678       0.00494377
Al      17.15000000      13.10000000      13.10000000      -0.01103626       0.00875959      -0.33143983
Al      17.15000000      15.12500000      15.12500000       0.00679308       0.00783508       0.68073321
Al      19.17500000      13.10000000      15.12500000       0.04395983       0.00302836       0.69091712
Al      19.17500000      15.12500000      13.10000000       0.18593931       0.00671604      -0.33274644
Al      17.15000000      17.15000000       5.00000000       0.02378442       0.01607172      -0.69939970
Al      17.15000000      19.17500000       7.02500000      -0.00950130       0.10226237       0.44717287
Al      19.17500000      17.15000000       7.02500000       0.11036340       0.01571712       0.43352595
Al      19.17500000      19.17500000       5.00000000       0.05311715       0.05028680      -0.69955227
Al      17.13131139      17.13442017       9.06157253       0.01710263       0.03446879       0.02894617
Al      17.12145964      19.16584653      11.07327788       0.00628455       0.00158219       0.03548875
Al      19.19710044      17.14871197      11.06989963      -0.00750392       0.02379856       0.04361114
Al      19.16854283      19.17007256       9.05716662       0.01155494       0.01492827      -0.01121744
Al      17.15000000      17.15000000      13.10000000      -0.02485505       0.02682420      -0.36825194
Al      17.15000000      19.17500000      15.12500000       0.00572048       0.04758114       0.68591626
Al      19.17500000      17.15000000      15.12500000       0.03971093       0.01525182       0.68600853
Al      19.17500000      19.17500000      13.10000000       0.08061815       0.10175136      -0.46290631
Al      17.15000000      21.20000000       5.00000000       0.01748385      -0.30551641      -0.63621126
Al      17.15000000      23.22500000       7.02500000       0.00613631       0.61167740       0.23624078
Al      19.17500000      21.20000000       7.02500000       0.05701375      -0.05937970       0.58600774
Al      19.17500000      23.22500000       5.00000000       0.04521298       0.19370152      -0.16464223
Al      17.14458728      21.25355822       9.06860677       0.02593730      -0.00255520       0.04002499
Al      17.15789801      23.42968094      11.08864675       0.00960838       0.02580524       0.00490090
Al      19.15991639      21.23010954      11.05551063       0.00547514      -0.00167932       0.03343447
Al      19.17731108      23.41082577       9.02584923       0.01801506      -0.00701665       0.03595107
Al      17.15000000      21.20000000      13.10000000      -0.01087943      -0.03928632      -0.54484739
Al      17.15000000      23.22500000      15.12500000       0.00668274       0.17595196       0.15748578
Al      19.17500000      21.20000000      15.12500000       0.03697499      -0.31806692       0.62590773
Al      19.17500000      23.22500000      13.10000000       0.00636420       0.57121507      -0.22067500
Al      21.20000000       5.00000000       5.00000000      -0.44692187      -0.08040588      -0.06992696
Al      21.20000000       7.02500000       7.02500000      -0.13684447       0.13684447       0.69257813
Al      23.22500000       5.00000000       7.02500000       0.03092534      -0.03092534       0.53850238
Al      23.22500000       7.02500000       5.00000000       0.08040588       0.44692187      -0.06992696
Al      21.17455129       4.87177424       9.04450641       0.01157497       0.01927363       0.00955206
Al      21.19818604       7.02681396      11.04051062       0.00124719      -0.00124719       0.01741787
Al      23.24601523       4.97898477      11.05726066       0.00932361      -0.00932361       0.02090750
Al      23.35322576       7.05044871       9.04450641      -0.01927363      -0.01157497       0.00955206
Al      21.20000000       5.00000000      13.10000000      -0.22082540      -0.48049293      -0.39835930
Al      21.20000000       7.02500000      15.12500000      -0.31522422       0.31522422       0.57523805
Al      23.22500000       5.00000000      15.12500000      -0.34330423       0.34330423      -0.33748914
Al      23.22500000       7.02500000      13.10000000       0.48049293       0.22082540      -0.39835930
Al      21.20000000       9.05000000       5.00000000      -0.31041210      -0.05031979      -0.62940504
Al      21.20000000      11.07500000       7.02500000      -0.02244742      -0.01501387       0.54898248
Al      23.22500000       9.05000000       7.02500000       0.58655257      -0.02015199       0.22465861
Al      23.22500000      11.07500000       5.00000000       0.18841562      -0.01643540      -0.16303912
Al      21.23686083       9.05728068       9.06969292      -0.01093130      -0.00608978      -0.01498592
Al      21.26416757      11.07212030      11.05525933      -0.02584517      -0.01363701       0.00221680
Al      23.41526658       9.04528776      11.09887022       0.00098988      -0.02297584      -0.01911850
Al      23.42742621      11.06846329       9.03485925       0.04358341      -0.02430728       0.01748705
Al      21.20000000       9.05000000      13.10000000      -0.06792916      -0.06018872      -0.57624603
Al      21.20000000      11.07500000      15.12500000      -0.31775231      -0.01022544       0.62791925
Al      23.22500000       9.05000000      15.12500000       0.18342858      -0.04234071       0.15986371
Al      23.22500000      11.07500000      13.10000000       0.61238354      -0.00152706      -0.22090312
Al      21.20000000      13.10000000       5.00000000      -0.30499043      -0.00658923      -0.63381266
Al      21.20000000      15.12500000       7.02500000       0.01182911      -0.00435657       0.52696735
Al      23.22500000      13.10000000       7.02500000       0.63107851      -0.01705162       0.22838955
Al      23.22500000      15.12500000       5.00000000       0.19228766      -0.00405303      -0.16625902
Al      21.26965462      13.09780138       9.06815324      -0.01970047      -0.01643669       0.02545844
Al      21.26710992      15.12500987      11.05488497      -0.01256102       0.01687055       0.00204157
Al      23.42676938      13.09955196      11.09153326       0.06361966      -0.01506824      -0.00011768
Al      23.42675368      15.12525658       9.03307608       0.06920902       0.00855124       0.01534332
Al      21.20000000      13.10000000      13.10000000      -0.00097110      -0.00299810      -0.51997925
Al      21.20000000      15.12500000      15.12500000      -0.31839972       0.00242193       0.62921183
Al      23.22500000      13.10000000      15.12500000       0.18308814       0.00132950       0.16295227
Al      23.22500000      15.12500000      13.10000000       0.61501926       0.01130086      -0.22763194
Al      21.20000000      17.15000000       5.00000000      -0.30662984       0.01050365      -0.63444300
Al      21.20000000      19.17500000       7.02500000      -0.05927668       0.06756004       0.58119515
Al      23.22500000      17.15000000       7.02500000       0.62697350      -0.00179893       0.21930823
Al      23.22500000      19.17500000       5.00000000       0.19136330       0.04298117      -0.16461302
Al      21.26467724      17.15232921       9.06714268      -0.02563962       0.01329445       0.03104007
Al      21.24266554      19.17172739      11.05457561      -0.02840845      -0.00194256       0.03315716
Al      23.42628010      17.15552074      11.08944081       0.03591125       0.02047915      -0.00224636
Al      23.41559285      19.17957959       9.02514837       0.01036453       0.02403499       0.03295557
Al      21.20000000      17.15000000      13.10000000      -0.01539053       0.00801434      -0.52564086