299
Lattice="28.224999999999998 0.0 0.0 0.0 28.224999999999998 0.0 0.0 0.0 20.125" Properties=species:S:1:pos:R:3:forces:R:3 energy=-16469.304497700683 pbc="T T T"
Al       5.00000000       5.00000000       5.00000000       0.32754709       0.32786131       0.33280553
Al       5.00000000       7.02500000       7.02500000      -0.49759345       0.24936087       0.37276995
Al       7.02500000       5.00000000       7.02500000       0.24521440      -0.49738459       0.36771502
Al       7.02500000       7.02500000       5.00000000       0.32561411       0.32648048      -0.58716065
Al       4.97768383       4.97750313       9.04712664      -0.01285774      -0.01141952       0.04838709
Al       4.88345766       7.04843395      11.08076513      -0.00642528       0.00239853      -0.02523911
Al       7.04667290       4.87440408      11.08141205      -0.00040253      -0.00552383      -0.02612391
Al       7.02880880       7.02734351       9.08049343      -0.00423091      -0.00113068       0.01286479
Al       5.00000000       5.00000000      13.10000000      -0.05153808      -0.04668664      -0.52114901
Al       5.00000000       7.02500000      15.12500000      -0.09094344       0.45714178       0.08524033
Al       7.02500000       5.00000000      15.12500000       0.45587950      -0.09132310       0.08450963
Al       7.02500000       7.02500000      13.10000000       0.15428055       0.15777972      -0.65995506
Al       5.00000000       9.05000000       5.00000000      -0.19606310      -0.03672953      -0.17434384
Al       5.00000000      11.07500000       7.02500000      -0.61518944      -0.00733313       0.24512626
Al       7.02500000       9.05000000       7.02500000       0.07979458      -0.04544262       0.55219977
Al       7.02500000      11.07500000       5.00000000       0.33076766      -0.00718317      -0.64228870
Al       4.82162864       9.04399704       9.02558418      -0.00353872       0.00803697       0.03382798
Al       4.79468089      11.06490587      11.09244197       0.00159772       0.00830802      -0.02952480
Al       6.99775431       9.06217073      11.05892641      -0.00086209       0.01152638      -0.00393866
Al       6.97230733      11.07629321       9.07030739       0.00300170       0.01115730       0.01594480
Al       5.00000000       9.05000000      13.10000000      -0.59076998      -0.02400188      -0.23225942
Al       5.00000000      11.07500000      15.12500000      -0.19681639      -0.00556977       0.17251532
Al       7.02500000       9.05000000      15.12500000       0.33328392      -0.03742206       0.63899689
Al       7.02500000      11.07500000      13.10000000       0.05595356       0.01542731      -0.54708986
Al       5.00000000      13.10000000       5.00000000      -0.20302355       0.00263752      -0.17333710
Al       5.00000000      15.12500000       7.02500000      -0.64113178       0.00899058       0.24502506
Al       7.02500000      13.10000000       7.02500000       0.04560281       0.00424734       0.57631790
Al       7.02500000      15.12500000       5.00000000       0.33010885      -0.00270048      -0.64211701
Al       4.78713455      13.09684628       9.02928340       0.00204848       0.00336810       0.03715599
Al       4.78928306      15.12727836      11.09407485       0.00452519      -0.00347225      -0.02767753
Al       6.95351735      13.09546035      11.05248295       0.00397278       0.00423834      -0.00245127
Al       6.95493513      15.12698304       9.06920608       0.00318562      -0.00264527       0.01429994
Al       5.00000000      13.10000000      13.10000000      -0.63167150      -0.00833929      -0.24668532
Al       5.00000000      15.12500000      15.12500000      -0.19758681      -0.00272473       0.17112919
Al       7.02500000      13.10000000      15.12500000       0.33366965       0.00363947       0.63699109
Al       7.02500000      15.12500000      13.10000000      -0.01758945      -0.00381284      -0.51439505
Al       5.00000000      17.15000000       5.00000000      -0.20162114       0.00687277      -0.17453799
Al       5.00000000      19.17500000       7.02500000      -0.59467966       0.02677984       0.23043508
Al       7.02500000      17.15000000       7.02500000       0.05827168      -0.00654366       0.56138532
Al       7.02500000      19.17500000       5.00000000       0.33068985       0.04051199      -0.64214687
Al       4.79317365      17.16028351       9.03106875       0.00036817      -0.00748266       0.03861465
Al       4.81360590      19.18356833      11.09991555       0.00017275      -0.00839497      -0.02719355
Al       6.96048973      17.15660020      11.05439697       0.00455138      -0.01049548      -0.00438666
Al       6.99523779      19.16643147       9.06744848       0.00071899      -0.00963571       0.01594161
Al       5.00000000      17.15000000      13.10000000      -0.62523062       0.00450635      -0.23069860
Al       5.00000000      19.17500000      15.12500000      -0.19186618       0.03542019       0.17133373
Al       7.02500000      17.15000000      15.12500000       0.33450960       0.00596421       0.63697234
Al       7.02500000      19.17500000      13.10000000       0.09463754       0.04368745      -0.55636636
Al       5.00000000      21.20000000       5.00000000      -0.09358642      -0.45485742      -0.08603768
Al       5.00000000      23.22500000       7.02500000      -0.05007675       0.05007675       0.52492247
Al       7.02500000      21.20000000       7.02500000       0.15913284      -0.15913284       0.66076975
Al       7.02500000      23.22500000       5.00000000       0.45485742       0.09358642      -0.08603768
Al       4.88174099      21.17630441       9.04352048      -0.00480876      -0.00143666       0.03246321
Al       4.98110216      23.24389784      11.07643329      -0.00977333       0.00977333      -0.04360219
Al       7.03448872      21.19051128      11.04580842      -0.00123502       0.00123502      -0.00552136
Al       7.04869559      23.34325901       9.04352048       0.00143666       0.00480876       0.03246321
Al       5.00000000      21.20000000      13.10000000      -0.48671980      -0.24975961      -0.36808119
Al       5.00000000      23.22500000      15.12500000       0.33095822      -0.33095822      -0.33304810
Al       7.02500000      21.20000000      15.12500000       0.32908398      -0.32908398       0.58454529
Al       7.02500000      23.22500000      13.10000000       0.24975961       0.48671980      -0.36808119
Al       9.05000000       5.00000000       5.00000000      -0.03710622      -0.19665909      -0.17398307
Al       9.05000000       7.02500000       7.02500000      -0.05335620       0.07736503       0.54982141
Al      11.07500000       5.00000000       7.02500000      -0.00461485      -0.62894172       0.23200039
Al      11.07500000       7.02500000       5.00000000      -0.00659136       0.33144604      -0.64189757
Al       9.04249411       4.81379412       9.02441999       0.00511966      -0.00382116       0.03369449
Al       9.05268355       6.98668231      11.05817075       0.00783049       0.00159217      -0.00503162
Al      11.06592749       4.79572407      11.09301665       0.00643417      -0.00002293      -0.03082649
Al      11.07006482       6.96378016       9.06889290       0.00911347       0.00288769       0.01490450
Al       9.05000000       5.00000000      13.10000000      -0.02594195      -0.60358289      -0.22012832
Al       9.05000000       7.02500000      15.12500000      -0.03920323       0.33472339       0.63907326
Al      11.07500000       5.00000000      15.12500000      -0.00652848      -0.19780081       0.17401428
Al      11.07500000       7.02500000      13.10000000       0.00628649       0.02671221      -0.52304998
Al       9.05000000       9.05000000       5.00000000      -0.04155097      -0.04075474      -0.70299279
Al       9.05000000      11.07500000       7.02500000      -0.10205520       0.02256686       0.42390490
Al      11.07500000       9.05000000       7.02500000      -0.00895956      -0.10096442       0.41359066
Al      11.07500000      11.07500000       5.00000000      -0.01043720      -0.01013901      -0.70318946
Al       9.05251209       9.05394405       9.05334189       0.00938916       0.01459585       0.01442013
Al       9.05692191      11.09894135      11.07472153       0.00818268       0.01004525      -0.00323846
Al      11.07256225       9.02846440      11.07262758       0.00839121       0.01378897      -0.00528965
Al      11.08331104      11.08763874       9.06122619       0.00936866       0.01606041       0.01756897
Al       9.05000000       9.05000000      13.10000000      -0.09366329      -0.07298322      -0.43441867
Al       9.05000000      11.07500000      15.12500000      -0.04165690      -0.00661813       0.69829638
Al      11.07500000       9.05000000      15.12500000      -0.00792208      -0.03969449       0.69695198
Al      11.07500000      11.07500000      13.10000000      -0.01351380       0.02050556      -0.37453250
Al       9.05000000      13.10000000       5.00000000      -0.04433014       0.00150844      -0.70459194
Al       9.05000000      15.12500000       7.02500000      -0.05232718      -0.00146894       0.47915526
Al      11.07500000      13.10000000       7.02500000       0.00733538       0.04305727       0.37220016
Al      11.07500000      15.12500000       5.00000000      -0.00903546      -0.00107607      -0.70391717
Al       9.04060430      13.11130496       9.06038283       0.01207338       0.00372033       0.01672985
Al       9.00470854      15.12514777      11.07621186       0.01122468      -0.00062256      -0.00304951
Al      11.13993744      13.17418072      11.09184918       0.00501484      -0.00165703       0.00309578
Al      11.10718132      15.12563833       9.08440945       0.02806260      -0.00007021       0.02533084
Al       9.05000000      13.10000000      13.10000000      -0.10279229       0.02043014      -0.42249186
Al       9.05000000      15.12500000      15.12500000      -0.04193963      -0.00168138       0.69391055
Al      11.07500000      13.10000000      15.12500000      -0.01997477      -0.00686932       0.71354141
Al      11.07500000      15.12500000      13.10000000       0.36702172       0.00740571      -0.48688211
Al       9.05000000      17.15000000       5.00000000      -0.04291151       0.00892826      -0.70461037
Al       9.05000000      19.17500000       7.02500000      -0.06970392       0.06970392       0.45703122
Al      11.07500000      17.15000000       7.02500000       0.01620514      -0.01620514       0.37894193
Al      11.07500000      19.17500000       5.00000000      -0.00892826       0.04291151      -0.70461037
Al       9.04822827      17.13909760       9.06067219       0.01558808      -0.01025658       0.01774069
Al       9.07095714      19.15404286      11.07501696       0.01129679      -0.01129679      -0.00175800
Al      11.14502570      17.07997430      11.09078388       0.00359676      -0.00359676       0.00433296
Al      11.08590240      19.17677173       9.06067219       0.01025658      -0.01558808       0.01774069
Al       9.05000000      17.15000000      13.10000000      -0.08652320      -0.00873500      -0.42295540
Al       9.05000000      19.17500000      15.12500000      -0.03922091       0.03922091       0.69879129
Al      11.07500000      17.15000000      15.12500000      -0.01886536       0.01886536       0.71365025
Al      11.07500000      19.17500000      13.10000000       0.00873500       0.08652320      -0.42295540
Al       9.05000000      21.20000000       5.00000000      -0.04051199      -0.33068985      -0.64214687
Al       9.05000000      23.22500000       7.02500000      -0.02677984       0.59467966       0.23043508
Al      11.07500000      21.20000000       7.02500000       0.00654366      -0.05827168       0.56138532
Al      11.07500000      23.22500000       5.00000000      -0.00687277       0.20162114      -0.17453799
Al       9.05856853      21.22976221       9.06744848       0.00963571      -0.00071899       0.01594161
Al       9.04143167      23.41139410      11.09991555       0.00839497      -0.00017275      -0.02719355
Al      11.06839980      21.26451027      11.05439697       0.01049548      -0.00455138      -0.00438666
Al      11.06471649      23.43182635       9.03106875       0.00748266      -0.00036817       0.03861465
Al       9.05000000      21.20000000      13.10000000      -0.04368745      -0.09463754      -0.55636636
Al       9.05000000      23.22500000      15.12500000      -0.03542019       0.19186618       0.17133373
Al      11.07500000      21.20000000      15.12500000      -0.00596421      -0.33450960       0.63697234
Al      11.07500000      23.22500000      13.10000000      -0.00450635       0.62523062      -0.23069860
Al      13.10000000       5.00000000       5.00000000       0.00362825      -0.20268667      -0.17411644
Al      13.10000000       7.02500000       7.02500000       0.00482332       0.00621718       0.53870409
Al      15.12500000       5.00000000       7.02500000       0.01043508      -0.63483401       0.24810981
Al      15.12500000       7.02500000       5.00000000      -0.00088300       0.33092508      -0.64107231
Al      13.09767932       4.78961150       9.03010562       0.00449024       0.00102388       0.03540338
Al      13.09802028       6.95807155      11.05352793       0.00400910       0.00354507      -0.00524130
Al      15.12692385       4.78975158      11.09476553      -0.00045950       0.00263837      -0.03014325
Al      15.12775509       6.95676523       9.07065026       0.00017042       0.00239578       0.01261884
Al      13.10000000       5.00000000      13.10000000      -0.00847901      -0.62846157      -0.24826994
Al      13.10000000       7.02500000      15.12500000       0.00305784       0.33445575       0.63916482
Al      15.12500000       5.00000000      15.12500000      -0.00223754      -0.19902586       0.17259184
Al      15.12500000       7.02500000      13.10000000      -0.00273922       0.01325093      -0.53772366
Al      13.10000000       9.05000000       5.00000000       0.00292055      -0.04429616      -0.70164139
Al      13.10000000      11.07500000       7.02500000      -0.00412820       0.06142070       0.42238800
Al      15.12500000       9.05000000       7.02500000      -0.00022575      -0.11733979       0.41341914
Al      15.12500000      11.07500000       5.00000000       0.00043945      -0.01175457      -0.70240138
Al      13.09984325       9.02212214       9.04970461       0.00253671       0.01032213       0.01415977
Al      13.10036601      11.04659858      11.07761834       0.00098942       0.01530958      -0.00596639
Al      15.12768007       9.02068386      11.07272325       0.00012479       0.00996216      -0.00584611
Al      15.11271023      11.08333184       9.06009553      -0.00116497       0.01595781       0.01654124
Al      13.10000000       9.05000000      13.10000000       0.00314092      -0.18133119      -0.35028720
Al      13.10000000      11.07500000      15.12500000       0.00104250      -0.00867125       0.69236372
Al      15.12500000       9.05000000      15.12500000      -0.00197064      -0.04153149       0.69672964
Al      15.12500000      11.07500000      13.10000000      -0.01328428       0.01007190      -0.36283169
Al      13.10000000      13.10000000       5.00000000       0.00125420       0.00283355      -0.70394285
Al      13.10000000      15.12500000       7.02500000      -0.00781889       0.00781889       0.08660083
Al      15.12500000      13.10000000       7.02500000      -0.04167183       0.04167183       0.36241663
Al      15.12500000      15.12500000       5.00000000      -0.00283355      -0.00125420      -0.70394285
Al      13.09804552      13.14161274       9.08553521       0.00145048       0.02138322       0.02312186
Al      15.05053327      13.17446673      11.09248126       0.00188144      -0.00188144       0.00363297
Al      15.08338726      15.12695448       9.08553521      -0.02138322      -0.00145048       0.02312186
Al      13.10000000      13.10000000      13.10000000      -0.01498888       0.39496110      -0.47143683
Al      13.10000000      15.12500000      15.12500000       0.00062055      -0.00062055       0.85205489
Al      15.12500000      13.10000000      15.12500000       0.00734463      -0.00734463       0.71324466
Al      15.12500000      15.12500000      13.10000000      -0.39496110       0.01498888      -0.47143683
Al      13.10000000      17.15000000       5.00000000       0.00107607       0.00903546      -0.70391717
Al      13.10000000      19.17500000       7.02500000       0.00146894       0.05232718       0.47915526
Al      15.12500000      17.15000000       7.02500000      -0.04305727      -0.00733538       0.37220016
Al      15.12500000      19.17500000       5.00000000      -0.00150844       0.04433014      -0.70459194
Al      13.09936167      17.11781868       9.08440945       0.00007021      -0.02806260       0.02533084
Al      13.09985223      19.22029146      11.07621186       0.00062256      -0.01122468      -0.00304951
Al      15.05081928      17.08506256      11.09184918       0.00165703      -0.00501484       0.00309578
Al      15.11369504      19.18439570       9.06038283      -0.00372033      -0.01207338       0.01672985
Al      13.10000000      17.15000000      13.10000000      -0.00740571      -0.36702172      -0.48688211
Al      13.10000000      19.17500000      15.12500000       0.00168138       0.04193963       0.69391055
Al      15.12500000      17.15000000      15.12500000       0.00686932       0.01997477       0.71354141
Al      15.12500000      19.17500000      13.10000000      -0.02043014       0.10279229      -0.42249186
Al      13.10000000      21.20000000       5.00000000       0.00270048      -0.33010885      -0.64211701
Al      13.10000000      23.22500000       7.02500000      -0.00899058       0.64113178       0.24502506
Al      15.12500000      21.20000000       7.02500000      -0.00424734      -0.04560281       0.57631790
Al      15.12500000      23.22500000       5.00000000      -0.00263752       0.20302355      -0.17333710
Al      13.09801696      21.27006487       9.06920608       0.00264527      -0.00318562       0.01429994
Al      13.09772164      23.43571694      11.09407485       0.00347225      -0.00452519      -0.02767753
Al      15.12953965      21.27148265      11.05248295      -0.00423834      -0.00397278      -0.00245127
Al      15.12815372      23.43786545       9.02928340      -0.00336810      -0.00204848       0.03715599
Al      13.10000000      21.20000000      13.10000000       0.00381284       0.01758945      -0.51439505
Al      13.10000000      23.22500000      15.12500000       0.00272473       0.19758681       0.17112919
Al      15.12500000      21.20000000      15.12500000      -0.00363947      -0.33366965       0.63699109
Al      15.12500000      23.22500000      13.10000000       0.00833929       0.63167150      -0.24668532
Al      17.15000000       5.00000000       5.00000000       0.00843577      -0.20029598      -0.17405383
Al      17.15000000       7.02500000       7.02500000      -0.00358306       0.03911100       0.54133830
Al      19.17500000       5.00000000       7.02500000       0.02842053      -0.59882943       0.23016128
Al      19.17500000       7.02500000       5.00000000       0.04136162       0.33134177      -0.63957952
Al      17.15914983       4.79472470       9.03182793      -0.00297595       0.00009244       0.03543642
Al      17.15453319       6.96410517      11.05509735      -0.00640328       0.00367741      -0.00762193
Al      19.18235007       4.81526120      11.09996928      -0.00413290      -0.00105700      -0.02932921
Al      19.16884307       6.99141189       9.06696883      -0.00607463      -0.00012886       0.00978202
Al      17.15000000       5.00000000      13.10000000       0.00552338      -0.62308825      -0.23374522
Al      17.15000000       7.02500000      15.12500000       0.00687860       0.33458692       0.63863587
Al      19.17500000       5.00000000      15.12500000       0.03642440      -0.19292914       0.17189884
Al      19.17500000       7.02500000      13.10000000       0.05012617       0.08049567      -0.54870915
Al      17.15000000       9.05000000       5.00000000       0.01043302      -0.04343813      -0.70093104
Al      17.15000000      11.07500000       7.02500000      -0.00275944       0.00275944       0.37533038
Al      19.17500000       9.05000000       7.02500000       0.09082718      -0.09082718       0.43366293
Al      19.17500000      11.07500000       5.00000000       0.04343813      -0.01043302      -0.70093104
Al      17.14428099       9.04034983       9.05364357      -0.00598795       0.01046720       0.01424659
Al      17.12832917      11.09667083      11.07499212      -0.00721285       0.00721285      -0.00587665
Al      19.16876203       9.05623797      11.07340751      -0.00936112       0.00936112      -0.00524071
Al      19.18465017      11.08071901       9.05364357      -0.01046720       0.00598795       0.01424659
Al      17.15000000       9.05000000      13.10000000       0.00226312      -0.10637048      -0.39944005
Al      17.15000000      11.07500000      15.12500000       0.00932128      -0.00932128       0.69663983
Al      19.17500000       9.05000000      15.12500000       0.03943333      -0.03943333       0.69895520
Al      19.17500000      11.07500000      13.10000000       0.10637048      -0.00226312      -0.39944005
Al      17.15000000      13.10000000       5.00000000       0.01175457      -0.00043945      -0.70240138
Al      17.15000000      15.12500000       7.02500000      -0.06142070       0.00412820       0.42238800
Al      19.17500000      13.10000000       7.02500000       0.11733979       0.00022575       0.41341914
Al      19.17500000      15.12500000       5.00000000       0.04429616      -0.00292055      -0.70164139
Al      17.14166816      13.11228977       9.06009553      -0.01595781       0.00116497       0.01654124
Al      17.17840142      15.12463399      11.07761834      -0.01530958      -0.00098942      -0.00596639
Al      19.20431614      13.09731993      11.07272325      -0.00996216      -0.00012479      -0.00584611
Al      19.20287786      15.12515675       9.04970461      -0.01032213      -0.00253671       0.01415977
Al      17.15000000      13.10000000      13.10000000      -0.01007190       0.01328428      -0.36283169
Al      17.15000000      15.12500000      15.12500000       0.00867125      -0.00104250       0.69236372
Al      19.17500000      13.10000000      15.12500000       0.04153149       0.00197064       0.69672964
Al      19.17500000      15.12500000      13.10000000       0.18133119      -0.00314092      -0.35028720
Al      17.15000000      17.15000000       5.00000000       0.01013901       0.01043720      -0.70318946
Al      17.15000000      19.17500000       7.02500000      -0.02256686       0.10205520       0.42390490
Al      19.17500000      17.15000000       7.02500000       0.10096442       0.00895956       0.41359066
Al      19.17500000      19.17500000       5.00000000       0.04075474       0.04155097      -0.70299279
Al      17.13736126      17.14168896       9.06122619      -0.01606041      -0.00936866       0.01756897
Al      17.12605865      19.16807809      11.07472153      -0.01004525      -0.00818268      -0.00323846
Al      19.19653560      17.15243775      11.07262758      -0.01378897      -0.00839121      -0.00528965
Al      19.17105595      19.17248791       9.05334189      -0.01459585      -0.00938916       0.01442013
Al      17.15000000      17.15000000      13.10000000      -0.02050556       0.01351380      -0.37453250
Al      17.15000000      19.17500000      15.12500000       0.00661813       0.04165690       0.69829638
Al      19.17500000      17.15000000      15.12500000       0.03969449       0.00792208       0.69695198
Al      19.17500000      19.17500000      13.10000000       0.07298322       0.09366329      -0.43441867
Al      17.15000000      21.20000000       5.00000000       0.00718317      -0.33076766      -0.64228870
Al      17.15000000      23.22500000       7.02500000       0.00733313       0.61518944       0.24512626
Al      19.17500000      21.20000000       7.02500000       0.04544262      -0.07979458       0.55219977
Al      19.17500000      23.22500000       5.00000000       0.03672953       0.19606310      -0.17434384
Al      17.14870679      21.25269267       9.07030739      -0.01115730      -0.00300170       0.01594480
Al      17.16009413      23.43031911      11.09244197      -0.00830802      -0.00159772      -0.02952480
Al      19.16282927      21.22724569      11.05892641      -0.01152638       0.00086209      -0.00393866
Al      19.18100296      23.40337136       9.02558418      -0.00803697       0.00353872       0.03382798
Al      17.15000000      21.20000000      13.10000000      -0.01542731      -0.05595356      -0.54708986
Al      17.15000000      23.22500000      15.12500000       0.00556977       0.19681639       0.17251532
Al      19.17500000      21.20000000      15.12500000       0.03742206      -0.33328392       0.63899689
Al      19.17500000      23.22500000      13.10000000       0.02400188       0.59076998      -0.23225942
Al      21.20000000       5.00000000       5.00000000      -0.45505586      -0.09213454      -0.08433155
Al      21.20000000       7.02500000       7.02500000      -0.15304382       0.15304382       0.66188136
Al      23.22500000       5.00000000       7.02500000       0.04932877      -0.04932877       0.52244500
Al      23.22500000       7.02500000       5.00000000       0.09213454       0.45505586      -0.08433155
Al      21.17783584       4.87874545       9.04409823      -0.00006299      -0.00523255       0.02814495
Al      21.19615708       7.02884292      11.04494049       0.00173868      -0.00173868      -0.00629156
Al      23.24720606       4.97779394      11.07818772       0.01061776      -0.01061776      -0.04650500
Al      23.34625455       7.04716416       9.04409823       0.00523255       0.00006299       0.02814495
Al      21.20000000       5.00000000      13.10000000      -0.24884801      -0.49323329      -0.36846371
Al      21.20000000       7.02500000      15.12500000      -0.32824391       0.32824391       0.58435558
Al      23.22500000       5.00000000      15.12500000      -0.32973699       0.32973699      -0.33429810
Al      23.22500000       7.02500000      13.10000000       0.49323329       0.24884801      -0.36846371
Al      21.20000000       9.05000000       5.00000000      -0.33134177      -0.04136162      -0.63957952
Al      21.20000000      11.07500000       7.02500000      -0.03911100       0.00358306       0.54133830
Al      23.22500000       9.05000000       7.02500000       0.59882943      -0.02842053       0.23016128
Al      23.22500000      11.07500000       5.00000000       0.20029598      -0.00843577      -0.17405383
Al      21.23358811       9.05615693       9.06696883       0.00012886       0.00607463       0.00978202
Al      21.26089483      11.07046681      11.05509735      -0.00367741       0.00640328      -0.00762193
Al      23.40973880       9.04264993      11.09996928       0.00105700       0.00413290      -0.02932921
Al      23.43027530      11.06585017       9.03182793      -0.00009244       0.00297595       0.03543642
Al      21.20000000       9.05000000      13.10000000      -0.08049567      -0.05012617      -0.54870915
Al      21.20000000      11.07500000      15.12500000      -0.33458692      -0.00687860       0.63863587
Al      23.22500000       9.05000000      15.12500000       0.19292914      -0.03642440       0.17189884
Al      23.22500000      11.07500000      13.10000000       0.62308825      -0.00552338      -0.23374522
Al      21.20000000      13.10000000       5.00000000      -0.33092508       0.00088300      -0.64107231
Al      21.20000000      15.12500000       7.02500000      -0.00621718      -0.00482332       0.53870409
Al      23.22500000      13.10000000       7.02500000       0.63483401      -0.01043508       0.24810981
Al      23.22500000      15.12500000       5.00000000       0.20268667      -0.00362825      -0.17411644
Al      21.26823477      13.09724491       9.07065026      -0.00239578      -0.00017042       0.01261884
Al      21.26692845      15.12697972      11.05352793      -0.00354507      -0.00400910      -0.00524130
Al      23.43524842      13.09807615      11.09476553      -0.00263837       0.00045950      -0.03014325
Al      23.43538850      15.12732068       9.03010562      -0.00102388      -0.00449024       0.03540338
Al      21.20000000      13.10000000      13.10000000      -0.01325093       0.00273922      -0.53772366
Al      21.20000000      15.12500000      15.12500000      -0.33445575      -0.00305784       0.63916482
Al      23.22500000      13.10000000      15.12500000       0.19902586       0.00223754       0.17259184
Al      23.22500000      15.12500000      13.10000000       0.62846157       0.00847901      -0.24826994
Al      21.20000000      17.15000000       5.00000000      -0.33144604       0.00659136      -0.64189757
Al      21.20000000      19.17500000       7.02500000      -0.07736503       0.05335620       0.54982141
Al      23.22500000      17.15000000       7.02500000       0.62894172       0.00461485       0.23200039
Al      23.22500000      19.17500000       5.00000000       0.19665909       0.03710622      -0.17398307
Al      21.26121984      17.15493518       9.06889290      -0.00288769      -0.00911347       0.01490450
Al      21.23831769      19.17231645      11.05817075      -0.00159217      -0.00783049      -0.00503162
Al      23.42927593      17.15907251      11.09301665       0.00002293      -0.00643417      -0.03082649
Al      23.41120588      19.18250589       9.02441999       0.00382116      -0.00511966       0.03369449
Al      21.20000000      17.15000000      13.10000000      -0.02671221      -0.00628649      -0.52304998