299
Lattice="28.224999999999998 0.0 0.0 0.0 28.224999999999998 0.0 0.0 0.0 20.125" Properties=species:S:1:pos:R:3:forces:R:3 energy=-16469.300465884575 pbc="T T T"
Al       5.00000000       5.00000000       5.00000000       0.32705571       0.32658639       0.33436194
Al       5.00000000       7.02500000       7.02500000      -0.49965717       0.24428475       0.37092703
Al       7.02500000       5.00000000       7.02500000       0.24138983      -0.49995018       0.36566281
Al       7.02500000       7.02500000       5.00000000       0.32408772       0.32387585      -0.58901209
Al       4.97768903       4.97740624       9.04676156      -0.01276823      -0.01212390       0.04977090
Al       4.88355528       7.04860306      11.08120849      -0.00898338      -0.00393221      -0.02960407
Al       7.04682798       4.87433504      11.08187332      -0.00454675      -0.00839641      -0.02996699
Al       7.02888463       7.02742292       9.07929713      -0.01029050      -0.00958363       0.02034067
Al       5.00000000       5.00000000      13.10000000      -0.05122637      -0.04748798      -0.52146272
Al       5.00000000       7.02500000      15.12500000      -0.09429461       0.45344411       0.08502381
Al       7.02500000       5.00000000      15.12500000       0.45380924      -0.09530145       0.08371786
Al       7.02500000       7.02500000      13.10000000       0.14670170       0.14772367      -0.65867190
Al       5.00000000       9.05000000       5.00000000      -0.19812532      -0.03744625      -0.17572928
Al       5.00000000      11.07500000       7.02500000      -0.62054001      -0.00789518       0.23513730
Al       7.02500000       9.05000000       7.02500000       0.07262961      -0.04974034       0.54144526
Al       7.02500000      11.07500000       5.00000000       0.33102338      -0.00568850      -0.64917625
Al       4.82170527       9.04429273       9.02479983      -0.01002846      -0.00004327       0.03572486
Al       4.79492555      11.06503984      11.09285688      -0.00936341       0.00359369      -0.03217535
Al       6.99785096       9.06245091      11.05990166      -0.00970585      -0.00061020      -0.01418662
Al       6.97241193      11.07647349       9.06899634      -0.00590197       0.00589570       0.01902503
Al       5.00000000       9.05000000      13.10000000      -0.59702062      -0.02904295      -0.22899030
Al       5.00000000      11.07500000      15.12500000      -0.20170984      -0.00667196       0.17674597
Al       7.02500000       9.05000000      15.12500000       0.32998040      -0.04026721       0.64563543
Al       7.02500000      11.07500000      13.10000000       0.04680389       0.01267419      -0.53608396
Al       5.00000000      13.10000000       5.00000000      -0.20364078       0.00338425      -0.17666332
Al       5.00000000      15.12500000       7.02500000      -0.64637194       0.01058962       0.23340790
Al       7.02500000      13.10000000       7.02500000       0.03881494       0.00500600       0.55706476
Al       7.02500000      15.12500000       5.00000000       0.33083362      -0.00290210      -0.64935266
Al       4.78743680      13.09697353       9.02867386      -0.00960000       0.00214192       0.03432823
Al       4.78964836      15.12745272      11.09437314      -0.00870813      -0.00182813      -0.02942568
Al       6.95365470      13.09562709      11.05334156      -0.00598143       0.00235635      -0.00909286
Al       6.95511994      15.12719370       9.06796765      -0.00657417      -0.00091557       0.01459582
Al       5.00000000      13.10000000      13.10000000      -0.64036643      -0.00845505      -0.23937113
Al       5.00000000      15.12500000      15.12500000      -0.20242146      -0.00239701       0.17619072
Al       7.02500000      13.10000000      15.12500000       0.33185538       0.00371968       0.64700873
Al       7.02500000      15.12500000      13.10000000      -0.02646280      -0.00263819      -0.50137490
Al       5.00000000      17.15000000       5.00000000      -0.20280759       0.00741192      -0.17680224
Al       5.00000000      19.17500000       7.02500000      -0.59816574       0.03124107       0.22416947
Al       7.02500000      17.15000000       7.02500000       0.05059851      -0.00351116       0.54495160
Al       7.02500000      19.17500000       5.00000000       0.32886779       0.04138007      -0.64641777
Al       4.79348100      17.16037393       9.03037663      -0.01047367      -0.00265930       0.03683208
Al       4.81383768      19.18340599      11.10042272      -0.00864189       0.00023655      -0.03174019
Al       6.96059551      17.15673859      11.05534321      -0.00556484      -0.00462307      -0.01261681
Al       6.99539902      19.16631694       9.06622081      -0.00878440       0.00148317       0.01996654
Al       5.00000000      17.15000000      13.10000000      -0.63378975       0.00790097      -0.22493042
Al       5.00000000      19.17500000      15.12500000      -0.19704938       0.03806456       0.17325473
Al       7.02500000      17.15000000      15.12500000       0.33116529       0.00637173       0.64609052
Al       7.02500000      19.17500000      13.10000000       0.08456332       0.05078447      -0.55073553
Al       5.00000000      21.20000000       5.00000000      -0.09473811      -0.45306637      -0.08436770
Al       5.00000000      23.22500000       7.02500000      -0.04914466       0.04914466       0.52455967
Al       7.02500000      21.20000000       7.02500000       0.15200339      -0.15200339       0.65578397
Al       7.02500000      23.22500000       5.00000000       0.45306637       0.09473811      -0.08436770
Al       4.88194262      21.17608189       9.04284950      -0.00849148       0.00396853       0.03371595
Al       4.98127223      23.24372777      11.07653290      -0.01166634       0.01166634      -0.04678779
Al       7.03464743      21.19035257      11.04668924      -0.00938102       0.00938102      -0.01496365
Al       7.04891811      23.34305738       9.04284950      -0.00396853       0.00849148       0.03371595
Al       5.00000000      21.20000000      13.10000000      -0.49033700      -0.24391664      -0.36901690
Al       5.00000000      23.22500000      15.12500000       0.32884990      -0.32884990      -0.33452185
Al       7.02500000      21.20000000      15.12500000       0.32423087      -0.32423087       0.58721283
Al       7.02500000      23.22500000      13.10000000       0.24391664       0.49033700      -0.36901690
Al       9.05000000       5.00000000       5.00000000      -0.03726912      -0.19899241      -0.17441095
Al       9.05000000       7.02500000       7.02500000      -0.05671259       0.06886488       0.53971707
Al      11.07500000       5.00000000       7.02500000      -0.00623239      -0.63386724       0.22264260
Al      11.07500000       7.02500000       5.00000000      -0.00507251       0.33111632      -0.64768498
Al       9.04262587       4.81367773       9.02358116      -0.00102212      -0.00966160       0.03610457
Al       9.05277900       6.98672434      11.05915620      -0.00134486      -0.00960840      -0.01508791
Al      11.06579976       4.79575445      11.09345598       0.00343437      -0.00883499      -0.03267481
Al      11.06990187       6.96378926       9.06752548       0.00537986      -0.00706460       0.02016492
Al       9.05000000       5.00000000      13.10000000      -0.02923075      -0.60929916      -0.21671745
Al       9.05000000       7.02500000      15.12500000      -0.03944808       0.32973655       0.64468694
Al      11.07500000       5.00000000      15.12500000      -0.00622421      -0.20146974       0.17624470
Al      11.07500000       7.02500000      13.10000000       0.00524683       0.01574809      -0.51214121
Al       9.05000000       9.05000000       5.00000000      -0.03909713      -0.03930483      -0.71104987
Al       9.05000000      11.07500000       7.02500000      -0.10324784       0.02263665       0.39943294
Al      11.07500000       9.05000000       7.02500000      -0.00910983      -0.10295880       0.38991932
Al      11.07500000      11.07500000       5.00000000      -0.00546872      -0.00597232      -0.71346113
Al       9.05251122       9.05415998       9.05196684       0.00122868       0.00314093       0.01946796
Al       9.05697146      11.09915548      11.07574606       0.00148196       0.00524842      -0.01126011
Al      11.07233615       9.02861461      11.07368431       0.00679651       0.00384413      -0.01353654
Al      11.08305832      11.08785732       9.05975345       0.01040709       0.01303398       0.01773779
Al       9.05000000       9.05000000      13.10000000      -0.09736835      -0.07939724      -0.42186819
Al       9.05000000      11.07500000      15.12500000      -0.03858421      -0.00583895       0.71054349
Al      11.07500000       9.05000000      15.12500000      -0.00453165      -0.03935395       0.70816083
Al      11.07500000      11.07500000      13.10000000      -0.01000741       0.02217615      -0.35165450
Al       9.05000000      13.10000000       5.00000000      -0.03935485       0.00292216      -0.71478172
Al       9.05000000      15.12500000       7.02500000      -0.05243380      -0.00109366       0.45176824
Al      11.07500000      13.10000000       7.02500000       0.01115954       0.04486011       0.33873971
Al      11.07500000      15.12500000       5.00000000      -0.00344942      -0.00349404      -0.71471441
Al       9.04070207      13.11158644       9.05901938       0.00532006       0.00182412       0.01636492
Al       9.00477346      15.12532605      11.07714343       0.00468512       0.00060362      -0.00891296
Al      11.13971743      13.17455068      11.09281190       0.00975456      -0.00264206      -0.00092282
Al      11.10711307      15.12586183       9.08308941       0.02649495      -0.00055106       0.02151376
Al       9.05000000      13.10000000      13.10000000      -0.10214431       0.02115533      -0.40218605
Al       9.05000000      15.12500000      15.12500000      -0.03750193      -0.00310248       0.70660736
Al      11.07500000      13.10000000      15.12500000      -0.01284658      -0.00527138       0.72544277
Al      11.07500000      15.12500000      13.10000000       0.37271929       0.00573029      -0.46093097
Al       9.05000000      17.15000000       5.00000000      -0.04008195       0.00679284      -0.71457767
Al       9.05000000      19.17500000       7.02500000      -0.07450034       0.07450034       0.43872251
Al      11.07500000      17.15000000       7.02500000       0.01753981      -0.01753981       0.34838128
Al      11.07500000      19.17500000       5.00000000      -0.00679284       0.04008195      -0.71457767
Al       9.04830063      17.13926629       9.05933398       0.00666266      -0.00647438       0.01809276
Al       9.07104179      19.15395821      11.07597649       0.00070232      -0.00070232      -0.01096085
Al      11.14501930      17.07998070      11.09177032       0.00398961      -0.00398961      -0.00081748
Al      11.08573371      19.17669937       9.05933398       0.00647438      -0.00666266       0.01809276
Al       9.05000000      17.15000000      13.10000000      -0.08875057      -0.00730344      -0.40589019
Al       9.05000000      19.17500000      15.12500000      -0.03990087       0.03990087       0.70945105
Al      11.07500000      17.15000000      15.12500000      -0.01413186       0.01413186       0.72659783
Al      11.07500000      19.17500000      13.10000000       0.00730344       0.08875057      -0.40589019
Al       9.05000000      21.20000000       5.00000000      -0.04138007      -0.32886779      -0.64641777
Al       9.05000000      23.22500000       7.02500000      -0.03124107       0.59816574       0.22416947
Al      11.07500000      21.20000000       7.02500000       0.00351116      -0.05059851       0.54495160
Al      11.07500000      23.22500000       5.00000000      -0.00741192       0.20280759      -0.17680224
Al       9.05868306      21.22960098       9.06622081      -0.00148317       0.00878440       0.01996654
Al       9.04159401      23.41116232      11.10042272      -0.00023655       0.00864189      -0.03174019
Al      11.06826141      21.26440449      11.05534321       0.00462307       0.00556484      -0.01261681
Al      11.06462607      23.43151900       9.03037663       0.00265930       0.01047367       0.03683208
Al       9.05000000      21.20000000      13.10000000      -0.05078447      -0.08456332      -0.55073553
Al       9.05000000      23.22500000      15.12500000      -0.03806456       0.19704938       0.17325473
Al      11.07500000      21.20000000      15.12500000      -0.00637173      -0.33116529       0.64609052
Al      11.07500000      23.22500000      13.10000000      -0.00790097       0.63378975      -0.22493042
Al      13.10000000       5.00000000       5.00000000       0.00302823      -0.20331595      -0.17636307
Al      13.10000000       7.02500000       7.02500000       0.00341042      -0.00133338       0.52111986
Al      15.12500000       5.00000000       7.02500000       0.00823069      -0.64006234       0.23769245
Al      15.12500000       7.02500000       5.00000000      -0.00362529       0.33194016      -0.64772280
Al      13.09744714       4.78961149       9.02938084       0.00320771      -0.00807790       0.03492062
Al      13.09777005       6.95807454      11.05439922       0.00331974      -0.00709116      -0.01117366
Al      15.12675918       4.78977782      11.09505354       0.00007104      -0.00648966      -0.03015111
Al      15.12752850       6.95679307       9.06933001       0.00057414      -0.00712524       0.01732921
Al      13.10000000       5.00000000      13.10000000      -0.00928741      -0.63457420      -0.24070928
Al      13.10000000       7.02500000      15.12500000       0.00420739       0.33221276       0.64651306
Al      15.12500000       5.00000000      15.12500000      -0.00287830      -0.20144971       0.17547572
Al      15.12500000       7.02500000      13.10000000      -0.00350369       0.00385317      -0.52431585
Al      13.10000000       9.05000000       5.00000000       0.00386546      -0.03934974      -0.71074072
Al      13.10000000      11.07500000       7.02500000      -0.00306664       0.06557018       0.38992566
Al      15.12500000       9.05000000       7.02500000      -0.00296301      -0.11689587       0.38742794
Al      15.12500000      11.07500000       5.00000000      -0.00263902      -0.00560797      -0.71194044
Al      13.09961218       9.02231789       9.04820370       0.00183094       0.00255279       0.01745129
Al      13.10011649      11.04669788      11.07857730       0.00257319       0.01623216      -0.00965355
Al      15.12741563       9.02083626      11.07372136       0.00173855       0.00229841      -0.01178533
Al      15.11243192      11.08345024       9.05860462      -0.00085648       0.01680958       0.01706835
Al      13.10000000       9.05000000      13.10000000       0.00422030      -0.18359348      -0.32988177
Al      13.10000000      11.07500000      15.12500000       0.00462331      -0.00407014       0.70352971
Al      15.12500000       9.05000000      15.12500000      -0.00279840      -0.03885041       0.70735591
Al      15.12500000      11.07500000      13.10000000      -0.01504177       0.01407739      -0.33727010
Al      13.10000000      13.10000000       5.00000000       0.00420177       0.00497814      -0.71320189
Al      13.10000000      15.12500000       7.02500000      -0.00553614       0.00553614       0.05004919
Al      15.12500000      13.10000000       7.02500000      -0.04464978       0.04464978       0.32768688
Al      15.12500000      15.12500000       5.00000000      -0.00497814      -0.00420177      -0.71320189
Al      13.09771965      13.14204317       9.08412741       0.00465459       0.01689076       0.02014991
Al      15.05023907      13.17476093      11.09340467       0.00148894      -0.00148894       0.00039965
Al      15.08295683      15.12728035       9.08412741      -0.01689076      -0.00465459       0.02014991
Al      13.10000000      13.10000000      13.10000000      -0.01173173       0.39667442      -0.44272726
Al      13.10000000      15.12500000      15.12500000       0.00448642      -0.00448642       0.86278683
Al      15.12500000      13.10000000      15.12500000       0.00543848      -0.00543848       0.72288145
Al      15.12500000      15.12500000      13.10000000      -0.39667442       0.01173173      -0.44272726
Al      13.10000000      17.15000000       5.00000000       0.00349404       0.00344942      -0.71471441
Al      13.10000000      19.17500000       7.02500000       0.00109366       0.05243380       0.45176824
Al      15.12500000      17.15000000       7.02500000      -0.04486011      -0.01115954       0.33873971
Al      15.12500000      19.17500000       5.00000000      -0.00292216       0.03935485      -0.71478172
Al      13.09913817      17.11788693       9.08308941       0.00055106      -0.02649495       0.02151376
Al      13.09967395      19.22022654      11.07714343      -0.00060362      -0.00468512      -0.00891296
Al      15.05044932      17.08528257      11.09281190       0.00264206      -0.00975456      -0.00092282
Al      15.11341356      19.18429793       9.05901938      -0.00182412      -0.00532006       0.01636492
Al      13.10000000      17.15000000      13.10000000      -0.00573029      -0.37271929      -0.46093097
Al      13.10000000      19.17500000      15.12500000       0.00310248       0.03750193       0.70660736
Al      15.12500000      17.15000000      15.12500000       0.00527138       0.01284658       0.72544277
Al      15.12500000      19.17500000      13.10000000      -0.02115533       0.10214431      -0.40218605
Al      13.10000000      21.20000000       5.00000000       0.00290210      -0.33083362      -0.64935266
Al      13.10000000      23.22500000       7.02500000      -0.01058962       0.64637194       0.23340790
Al      15.12500000      21.20000000       7.02500000      -0.00500600      -0.03881494       0.55706476
Al      15.12500000      23.22500000       5.00000000      -0.00338425       0.20364078      -0.17666332
Al      13.09780630      21.26988006       9.06796765       0.00091557       0.00657417       0.01459582
Al      13.09754728      23.43535164      11.09437314       0.00182813       0.00870813      -0.02942568
Al      15.12937291      21.27134530      11.05334156      -0.00235635       0.00598143      -0.00909286
Al      15.12802647      23.43756320       9.02867386      -0.00214192       0.00960000       0.03432823
Al      13.10000000      21.20000000      13.10000000       0.00263819       0.02646280      -0.50137490
Al      13.10000000      23.22500000      15.12500000       0.00239701       0.20242146       0.17619072
Al      15.12500000      21.20000000      15.12500000      -0.00371968      -0.33185538       0.64700873
Al      15.12500000      23.22500000      13.10000000       0.00845505       0.64036643      -0.23937113
Al      17.15000000       5.00000000       5.00000000       0.00642537      -0.20282125      -0.17677255
Al      17.15000000       7.02500000       7.02500000      -0.00560867       0.03122096       0.52691597
Al      19.17500000       5.00000000       7.02500000       0.02976794      -0.60483992       0.22424537
Al      19.17500000       7.02500000       5.00000000       0.03973847       0.32972015      -0.64584563
Al      17.15896477       4.79459374       9.03100160      -0.00077398      -0.00804071       0.03711601
Al      17.15434000       6.96404034      11.05603179      -0.00298486      -0.00579807      -0.01420543
Al      19.18207917       4.81505347      11.10045790       0.00171108      -0.00644552      -0.03215480
Al      19.16855923       6.99140124       9.06564450       0.00273673      -0.00899290       0.01981011
Al      17.15000000       5.00000000      13.10000000       0.00509698      -0.62922602      -0.22697784
Al      17.15000000       7.02500000      15.12500000       0.00524897       0.33254795       0.64572607
Al      19.17500000       5.00000000      15.12500000       0.03665587      -0.19679922       0.17360873
Al      19.17500000       7.02500000      13.10000000       0.05312340       0.07173426      -0.54173867
Al      17.15000000       9.05000000       5.00000000       0.00549126      -0.03872453      -0.71074715
Al      17.15000000      11.07500000       7.02500000      -0.00668687       0.00668687       0.34635651
Al      19.17500000       9.05000000       7.02500000       0.09234801      -0.09234801       0.41710712
Al      19.17500000      11.07500000       5.00000000       0.03872453      -0.00549126      -0.71074715
Al      17.14412355       9.04050891       9.05213939      -0.00425232       0.00304460       0.02040802
Al      17.12814820      11.09685180      11.07603316      -0.00620827       0.00620827      -0.01104384
Al      19.16856674       9.05643326      11.07440087      -0.00020955       0.00020955      -0.01312983
Al      19.18449109      11.08087645       9.05213939      -0.00304460       0.00425232       0.02040802
Al      17.15000000       9.05000000      13.10000000       0.00190848      -0.10893639      -0.38120179
Al      17.15000000      11.07500000      15.12500000       0.00574245      -0.00574245       0.70786800
Al      19.17500000       9.05000000      15.12500000       0.03841510      -0.03841510       0.70806734
Al      19.17500000      11.07500000      13.10000000       0.10893639      -0.00190848      -0.38120179
Al      17.15000000      13.10000000       5.00000000       0.00560797       0.00263902      -0.71194044
Al      17.15000000      15.12500000       7.02500000      -0.06557018       0.00306664       0.38992566
Al      19.17500000      13.10000000       7.02500000       0.11689587       0.00296301       0.38742794
Al      19.17500000      15.12500000       5.00000000       0.03934974      -0.00386546      -0.71074072
Al      17.14154976      13.11256808       9.05860462      -0.01680958       0.00085648       0.01706835
Al      17.17830212      15.12488351      11.07857730      -0.01623216      -0.00257319      -0.00965355
Al      19.20416374      13.09758437      11.07372136      -0.00229841      -0.00173855      -0.01178533
Al      19.20268211      15.12538782       9.04820370      -0.00255279      -0.00183094       0.01745129
Al      17.15000000      13.10000000      13.10000000      -0.01407739       0.01504177      -0.33727010
Al      17.15000000      15.12500000      15.12500000       0.00407014      -0.00462331       0.70352971
Al      19.17500000      13.10000000      15.12500000       0.03885041       0.00279840       0.70735591
Al      19.17500000      15.12500000      13.10000000       0.18359348      -0.00422030      -0.32988177
Al      17.15000000      17.15000000       5.00000000       0.00597232       0.00546872      -0.71346113
Al      17.15000000      19.17500000       7.02500000      -0.02263665       0.10324784       0.39943294
Al      19.17500000      17.15000000       7.02500000       0.10295880       0.00910983       0.38991932
Al      19.17500000      19.17500000       5.00000000       0.03930483       0.03909713      -0.71104987
Al      17.13714268      17.14194168       9.05975345      -0.01303398      -0.01040709       0.01773779
Al      17.12584452      19.16802854      11.07574606      -0.00524842      -0.00148196      -0.01126011
Al      19.19638539      17.15266385      11.07368431      -0.00384413      -0.00679651      -0.01353654
Al      19.17084002      19.17248878       9.05196684      -0.00314093      -0.00122868       0.01946796
Al      17.15000000      17.15000000      13.10000000      -0.02217615       0.01000741      -0.35165450
Al      17.15000000      19.17500000      15.12500000       0.00583895       0.03858421       0.71054349
Al      19.17500000      17.15000000      15.12500000       0.03935395       0.00453165       0.70816083
Al      19.17500000      19.17500000      13.10000000       0.07939724       0.09736835      -0.42186819
Al      17.15000000      21.20000000       5.00000000       0.00568850      -0.33102338      -0.64917625
Al      17.15000000      23.22500000       7.02500000       0.00789518       0.62054001       0.23513730
Al      19.17500000      21.20000000       7.02500000       0.04974034      -0.07262961       0.54144526
Al      19.17500000      23.22500000       5.00000000       0.03744625       0.19812532      -0.17572928
Al      17.14852651      21.25258807       9.06899634      -0.00589570       0.00590197       0.01902503
Al      17.15996016      23.43007445      11.09285688      -0.00359369       0.00936341      -0.03217535
Al      19.16254909      21.22714904      11.05990166       0.00061020       0.00970585      -0.01418662
Al      19.18070727      23.40329473       9.02479983       0.00004327       0.01002846       0.03572486
Al      17.15000000      21.20000000      13.10000000      -0.01267419      -0.04680389      -0.53608396
Al      17.15000000      23.22500000      15.12500000       0.00667196       0.20170984       0.17674597
Al      19.17500000      21.20000000      15.12500000       0.04026721      -0.32998040       0.64563543
Al      19.17500000      23.22500000      13.10000000       0.02904295       0.59702062      -0.22899030
Al      21.20000000       5.00000000       5.00000000      -0.45319487      -0.09610632      -0.08482907
Al      21.20000000       7.02500000       7.02500000      -0.14557648       0.14557648       0.65861298
Al      23.22500000       5.00000000       7.02500000       0.05079059      -0.05079059       0.52055532
Al      23.22500000       7.02500000       5.00000000       0.09610632       0.45319487      -0.08482907
Al      21.17772574       4.87843649       9.04330654       0.00438712      -0.00725022       0.03283558
Al      21.19614764       7.02885236      11.04581058       0.00865123      -0.00865123      -0.01502239
Al      23.24737234       4.97762766      11.07827647       0.01043903      -0.01043903      -0.04757053
Al      23.34656351       7.04727426       9.04330654       0.00725022      -0.00438712       0.03283558
Al      21.20000000       5.00000000      13.10000000      -0.24417146      -0.49681050      -0.36788024
Al      21.20000000       7.02500000      15.12500000      -0.32538978       0.32538978       0.58747237
Al      23.22500000       5.00000000      15.12500000      -0.32798203       0.32798203      -0.33507600
Al      23.22500000       7.02500000      13.10000000       0.49681050       0.24417146      -0.36788024
Al      21.20000000       9.05000000       5.00000000      -0.32972015      -0.03973847      -0.64584563
Al      21.20000000      11.07500000       7.02500000      -0.03122096       0.00560867       0.52691597
Al      23.22500000       9.05000000       7.02500000       0.60483992      -0.02976794       0.22424537
Al      23.22500000      11.07500000       5.00000000       0.20282125      -0.00642537      -0.17677255
Al      21.23359876       9.05644077       9.06564450       0.00899290      -0.00273673       0.01981011
Al      21.26095966      11.07066000      11.05603179       0.00579807       0.00298486      -0.01420543
Al      23.40994653       9.04292083      11.10045790       0.00644552      -0.00171108      -0.03215480
Al      23.43040626      11.06603523       9.03100160       0.00804071       0.00077398       0.03711601
Al      21.20000000       9.05000000      13.10000000      -0.07173426      -0.05312340      -0.54173867
Al      21.20000000      11.07500000      15.12500000      -0.33254795      -0.00524897       0.64572607
Al      23.22500000       9.05000000      15.12500000       0.19679922      -0.03665587       0.17360873
Al      23.22500000      11.07500000      13.10000000       0.62922602      -0.00509698      -0.22697784
Al      21.20000000      13.10000000       5.00000000      -0.33194016       0.00362529      -0.64772280
Al      21.20000000      15.12500000       7.02500000       0.00133338      -0.00341042       0.52111986
Al      23.22500000      13.10000000       7.02500000       0.64006234      -0.00823069       0.23769245
Al      23.22500000      15.12500000       5.00000000       0.20331595      -0.00302823      -0.17636307
Al      21.26820693      13.09747150       9.06933001       0.00712524      -0.00057414       0.01732921
Al      21.26692546      15.12722995      11.05439922       0.00709116      -0.00331974      -0.01117366
Al      23.43522218      13.09824082      11.09505354       0.00648966      -0.00007104      -0.03015111
Al      23.43538851      15.12755286       9.02938084       0.00807790      -0.00320771       0.03492062
Al      21.20000000      13.10000000      13.10000000      -0.00385317       0.00350369      -0.52431585
Al      21.20000000      15.12500000      15.12500000      -0.33221276      -0.00420739       0.64651306
Al      23.22500000      13.10000000      15.12500000       0.20144971       0.00287830       0.17547572
Al      23.22500000      15.12500000      13.10000000       0.63457420       0.00928741      -0.24070928
Al      21.20000000      17.15000000       5.00000000      -0.33111632       0.00507251      -0.64768498
Al      21.20000000      19.17500000       7.02500000      -0.06886488       0.05671259       0.53971707
Al      23.22500000      17.15000000       7.02500000       0.63386724       0.00623239       0.22264260
Al      23.22500000      19.17500000       5.00000000       0.19899241       0.03726912      -0.17441095
Al      21.26121074      17.15509813       9.06752548       0.00706460      -0.00537986       0.02016492
Al      21.23827566      19.17222100      11.05915620       0.00960840       0.00134486      -0.01508791
Al      23.42924555      17.15920024      11.09345598       0.00883499      -0.00343437      -0.03267481
Al      23.41132227      19.18237413       9.02358116       0.00966160       0.00102212       0.03610457
Al      21.20000000      17.15000000      13.10000000      -0.01574809      -0.00524683      -0.51214121