299
Lattice="28.224999999999998 0.0 0.0 0.0 28.224999999999998 0.0 0.0 0.0 20.125" Properties=species:S:1:pos:R:3:forces:R:3 energy=-16469.311425314605 pbc="T T T"
Al       5.00000000       5.00000000       5.00000000       0.33245257       0.33254758       0.34267864
Al       5.00000000       7.02500000       7.02500000      -0.48437035       0.24535908       0.37123501
Al       7.02500000       5.00000000       7.02500000       0.24298762      -0.48464510       0.36631485
Al       7.02500000       7.02500000       5.00000000       0.31490253       0.31501807      -0.55647956
Al       4.97706179       4.97673668       9.04955547      -0.00518148      -0.00378963       0.05928611
Al       4.88263026       7.04811708      11.07864037      -0.00471355      -0.00349710      -0.02901401
Al       7.04655412       4.87349290      11.07929254      -0.00531549      -0.00374779      -0.02975638
Al       7.02879513       7.02711986       9.08120946      -0.01323728      -0.01092035       0.00319395
Al       5.00000000       5.00000000      13.10000000      -0.04702627      -0.04304970      -0.52339766
Al       5.00000000       7.02500000      15.12500000      -0.09180366       0.44980870       0.06741373
Al       7.02500000       5.00000000      15.12500000       0.44966655      -0.09226913       0.06627177
Al       7.02500000       7.02500000      13.10000000       0.14691690       0.14792125      -0.66150276
Al       5.00000000       9.05000000       5.00000000      -0.19875430      -0.04515637      -0.15423480
Al       5.00000000      11.07500000       7.02500000      -0.60846932      -0.01550371       0.24141733
Al       7.02500000       9.05000000       7.02500000       0.06953124      -0.05957040       0.54853479
Al       7.02500000      11.07500000       5.00000000       0.31291284      -0.01621235      -0.61258354
Al       4.82083988       9.04383879       9.02737671      -0.00380984      -0.00100629       0.03231848
Al       4.79367374      11.06439975      11.09019304      -0.00228366       0.00147101      -0.03326672
Al       6.99760538       9.06192115      11.05827519      -0.01294142      -0.00186821      -0.00215073
Al       6.97245819      11.07580030       9.07082544      -0.01585822      -0.00021800       0.00358005
Al       5.00000000       9.05000000      13.10000000      -0.58444561      -0.03503799      -0.23278398
Al       5.00000000      11.07500000      15.12500000      -0.20672662      -0.01348463       0.15572725
Al       7.02500000       9.05000000      15.12500000       0.31591667      -0.05189559       0.61056919
Al       7.02500000      11.07500000      13.10000000       0.04077804       0.00311654      -0.54925130
Al       5.00000000      13.10000000       5.00000000      -0.21050232      -0.00013163      -0.15520122
Al       5.00000000      15.12500000       7.02500000      -0.63671210       0.01174655       0.24304626
Al       7.02500000      13.10000000       7.02500000       0.02955790      -0.00077831       0.57210607
Al       7.02500000      15.12500000       5.00000000       0.31023691      -0.00024555      -0.61425747
Al       4.78595928      13.09649454       9.03137116      -0.00127967       0.00137405       0.03444651
Al       4.78794331      15.12771172      11.09154730       0.00012889      -0.00364754      -0.03165734
Al       6.95398636      13.09499807      11.05096861      -0.02252099       0.00154133       0.00588822
Al       6.95540774      15.12732706       9.06997864      -0.02378666      -0.00181834      -0.00109317
Al       5.00000000      13.10000000      13.10000000      -0.63025375      -0.01212548      -0.25075059
Al       5.00000000      15.12500000      15.12500000      -0.20958208      -0.00092520       0.15604144
Al       7.02500000      13.10000000      15.12500000       0.31292132      -0.00048786       0.61287545
Al       7.02500000      15.12500000      13.10000000      -0.03447904      -0.00105796      -0.51812926
Al       5.00000000      17.15000000       5.00000000      -0.20795004       0.01277291      -0.15531065
Al       5.00000000      19.17500000       7.02500000      -0.58656849       0.03594656       0.22576247
Al       7.02500000      17.15000000       7.02500000       0.04288779       0.00415040       0.55551990
Al       7.02500000      19.17500000       5.00000000       0.31504146       0.05231559      -0.61098495
Al       4.79222579      17.16087599       9.03291264      -0.00400624      -0.00241963       0.03562833
Al       4.81267396      19.18385500      11.09782263      -0.00292730      -0.00027870      -0.03151616
Al       6.96028548      17.15705054      11.05329792      -0.01353418      -0.00097432      -0.00005247
Al       6.99482722      19.16675062       9.06753514      -0.01022766       0.00183388       0.00747106
Al       5.00000000      17.15000000      13.10000000      -0.62349368       0.01263879      -0.23197435
Al       5.00000000      19.17500000      15.12500000      -0.19963854       0.04450467       0.15403406
Al       7.02500000      17.15000000      15.12500000       0.31450523       0.01404428       0.61179801
Al       7.02500000      19.17500000      13.10000000       0.08051081       0.05798024      -0.55845466
Al       5.00000000      21.20000000       5.00000000      -0.09255647      -0.44968852      -0.06707535
Al       5.00000000      23.22500000       7.02500000      -0.04571309       0.04571309       0.52420596
Al       7.02500000      21.20000000       7.02500000       0.15209046      -0.15209046       0.65572123
Al       7.02500000      23.22500000       5.00000000       0.44968852       0.09255647      -0.06707535
Al       4.88099118      21.17667230       9.04532372      -0.00509793       0.00333756       0.03131505
Al       4.98040910      23.24459090      11.07384929      -0.00466420       0.00466420      -0.05779829
Al       7.03416570      21.19083430      11.04483042      -0.01059109       0.01059109      -0.00239116
Al       7.04832770      23.34400882       9.04532372      -0.00333756       0.00509793       0.03131505
Al       5.00000000      21.20000000      13.10000000      -0.47847061      -0.24431072      -0.36945428
Al       5.00000000      23.22500000      15.12500000       0.33238833      -0.33238833      -0.34126043
Al       7.02500000      21.20000000      15.12500000       0.31521951      -0.31521951       0.55779009
Al       7.02500000      23.22500000      13.10000000       0.24431072       0.47847061      -0.36945428
Al       9.05000000       5.00000000       5.00000000      -0.04474685      -0.19916507      -0.15318673
Al       9.05000000       7.02500000       7.02500000      -0.06497387       0.06564529       0.54640812
Al      11.07500000       5.00000000       7.02500000      -0.01176291      -0.62138838       0.22913498
Al      11.07500000       7.02500000       5.00000000      -0.01458188       0.31338224      -0.61102334
Al       9.04252827       4.81303613       9.02624776      -0.00252014      -0.00418724       0.03236144
Al       9.05273011       6.98633917      11.05758254      -0.00401593      -0.01091396      -0.00302637
Al      11.06547019       4.79490985      11.09083828       0.00162356      -0.00393722      -0.03368480
Al      11.06976355       6.96379843       9.06940761      -0.00069837      -0.01592422       0.00278891
Al       9.05000000       5.00000000      13.10000000      -0.03447795      -0.59679561      -0.22053260
Al       9.05000000       7.02500000      15.12500000      -0.05162661       0.31617262       0.60958261
Al      11.07500000       5.00000000      15.12500000      -0.01290819      -0.20669250       0.15539148
Al      11.07500000       7.02500000      13.10000000      -0.00326854       0.01032991      -0.52482121
Al       9.05000000       9.05000000       5.00000000      -0.05560831      -0.05606211      -0.67084695
Al       9.05000000      11.07500000       7.02500000      -0.11865934       0.00855827       0.41661308
Al      11.07500000       9.05000000       7.02500000      -0.02010259      -0.12010285       0.40674020
Al      11.07500000      11.07500000       5.00000000      -0.02074161      -0.02208562      -0.67464097
Al       9.05274190       9.05386631       9.05332660      -0.00775815      -0.00413766       0.00752364
Al       9.05725237      11.09874313      11.07396133      -0.01183240      -0.00772499       0.00120948
Al      11.07264030       9.02843360      11.07191790      -0.00795957      -0.00751085      -0.00032060
Al      11.08331605      11.08735412       9.06143090      -0.00486894       0.00098929       0.00270062
Al       9.05000000       9.05000000      13.10000000      -0.10827759      -0.09156607      -0.43742194
Al       9.05000000      11.07500000      15.12500000      -0.05745279      -0.01762738       0.67206501
Al      11.07500000       9.05000000      15.12500000      -0.01694015      -0.05751251       0.66943373
Al      11.07500000      11.07500000      13.10000000      -0.02499667       0.00367489      -0.37215437
Al       9.05000000      13.10000000       5.00000000      -0.06134010      -0.00324811      -0.67658316
Al       9.05000000      15.12500000       7.02500000      -0.06874402       0.00130800       0.47154414
Al      11.07500000      13.10000000       7.02500000      -0.00313327       0.03792934       0.36333384
Al      11.07500000      15.12500000       5.00000000      -0.01933292       0.00156871      -0.67732421
Al       9.04109306      13.11093284       9.06052980      -0.00867240      -0.00086774       0.00244686
Al       9.00501862      15.12519218      11.07515174      -0.01077041       0.00383910       0.00370273
Al      11.13981787      13.17380048      11.09075229      -0.00598887      -0.00458984       0.01003117
Al      11.10745906      15.12566732       9.08489952       0.01780956       0.00387986       0.01188015
Al       9.05000000      13.10000000      13.10000000      -0.12188099       0.01362654      -0.42117724
Al       9.05000000      15.12500000      15.12500000      -0.05894685       0.00072121       0.67073282
Al      11.07500000      13.10000000      15.12500000      -0.03090679      -0.01304162       0.69280584
Al      11.07500000      15.12500000      13.10000000       0.35351612       0.00983937      -0.48569156
Al       9.05000000      17.15000000       5.00000000      -0.05979769       0.01868275      -0.67548226
Al       9.05000000      19.17500000       7.02500000      -0.08647193       0.08647193       0.45176719
Al      11.07500000      17.15000000       7.02500000       0.00610336      -0.00610336       0.37137571
Al      11.07500000      19.17500000       5.00000000      -0.01868275       0.05979769      -0.67548226
Al       9.04836437      17.13908338       9.06064505      -0.00308417       0.00617610       0.00772847
Al       9.07078344      19.15421656      11.07446936      -0.00500478       0.00500478      -0.00391997
Al      11.14507831      17.07992169      11.08973748      -0.00912257       0.00912257       0.00847655
Al      11.08591662      19.17663563       9.06064505      -0.00617610       0.00308417       0.00772847
Al       9.05000000      17.15000000      13.10000000      -0.10579337       0.00301296      -0.42342561
Al       9.05000000      19.17500000      15.12500000      -0.05418510       0.05418510       0.67215735
Al      11.07500000      17.15000000      15.12500000      -0.02978457       0.02978457       0.69244365
Al      11.07500000      19.17500000      13.10000000      -0.00301296       0.10579337      -0.42342561
Al       9.05000000      21.20000000       5.00000000      -0.05231559      -0.31504146      -0.61098495
Al       9.05000000      23.22500000       7.02500000      -0.03594656       0.58656849       0.22576247
Al      11.07500000      21.20000000       7.02500000      -0.00415040      -0.04288779       0.55551990
Al      11.07500000      23.22500000       5.00000000      -0.01277291       0.20795004      -0.15531065
Al       9.05824938      21.23017278       9.06753514      -0.00183388       0.01022766       0.00747106
Al       9.04114500      23.41232604      11.09782263       0.00027870       0.00292730      -0.03151616
Al      11.06794946      21.26471452      11.05329792       0.00097432       0.01353418      -0.00005247
Al      11.06412401      23.43277421       9.03291264       0.00241963       0.00400624       0.03562833
Al       9.05000000      21.20000000      13.10000000      -0.05798024      -0.08051081      -0.55845466
Al       9.05000000      23.22500000      15.12500000      -0.04450467       0.19963854       0.15403406
Al      11.07500000      21.20000000      15.12500000      -0.01404428      -0.31450523       0.61179801
Al      11.07500000      23.22500000      13.10000000      -0.01263879       0.62349368      -0.23197435
Al      13.10000000       5.00000000       5.00000000       0.00111759      -0.20947741      -0.15492276
Al      13.10000000       7.02500000       7.02500000       0.00073107      -0.00934227       0.53564846
Al      15.12500000       5.00000000       7.02500000       0.01157666      -0.62850824       0.24793114
Al      15.12500000       7.02500000       5.00000000       0.00156232       0.31189129      -0.61183950
Al      13.09717558       4.78866405       9.03226071       0.00421549      -0.00189962       0.03367690
Al      13.09749491       6.95859926      11.05217575       0.00376145      -0.02331166       0.00414505
Al      15.12699750       4.78865330      11.09235255       0.00087127      -0.00023648      -0.03294770
Al      15.12781915       6.95738053       9.07152535       0.00251768      -0.02401305      -0.00194055
Al      13.10000000       5.00000000      13.10000000      -0.01161558      -0.62479636      -0.25228444
Al      13.10000000       7.02500000      15.12500000       0.00037341       0.31276265       0.61236987
Al      15.12500000       5.00000000      15.12500000       0.00057952      -0.20921717       0.15508065
Al      15.12500000       7.02500000      13.10000000       0.00023385      -0.00363930      -0.54129973
Al      13.10000000       9.05000000       5.00000000      -0.00048009      -0.06188562      -0.67224604
Al      13.10000000      11.07500000       7.02500000      -0.00827361       0.04794667       0.41312137
Al      15.12500000       9.05000000       7.02500000       0.00321875      -0.13648136       0.40540075
Al      15.12500000      11.07500000       5.00000000       0.00446109      -0.02352153      -0.67519330
Al      13.09956719       9.02236101       9.04987286      -0.00131910      -0.01354774      -0.00058283
Al      13.10010715      11.04614298      11.07646827      -0.00151708       0.00118494       0.00406212
Al      15.12765310       9.02096985      11.07182578       0.00579696      -0.01279022       0.00378886
Al      15.11288784      11.08300577       9.06036201       0.00232692       0.00405862       0.00113642
Al      13.10000000       9.05000000      13.10000000      -0.00014501      -0.20081547      -0.34998800
Al      13.10000000      11.07500000      15.12500000      -0.00145298      -0.02077446       0.66877039
Al      15.12500000       9.05000000      15.12500000       0.00188242      -0.05911848       0.67022639
Al      15.12500000      11.07500000      13.10000000      -0.00711437      -0.00627285      -0.35988478
Al      13.10000000      13.10000000       5.00000000      -0.00196646      -0.00190407      -0.67830844
Al      13.10000000      15.12500000       7.02500000      -0.01148404       0.01148404       0.07767393
Al      15.12500000      13.10000000       7.02500000      -0.03700995       0.03700995       0.35396885
Al      15.12500000      15.12500000       5.00000000       0.00190407       0.00196646      -0.67830844
Al      13.09786722      13.14161393       9.08611626      -0.00127193       0.01946467       0.00892697
Al      15.05079742      13.17420258      11.09126909       0.00559779      -0.00559779       0.01159162
Al      15.08338607      15.12713278       9.08611626      -0.01946467       0.00127193       0.00892697
Al      13.10000000      13.10000000      13.10000000      -0.01820763       0.38541748      -0.46965267
Al      13.10000000      15.12500000      15.12500000      -0.00180033       0.00180033       0.83523628
Al      15.12500000      13.10000000      15.12500000       0.01344945      -0.01344945       0.69296107
Al      15.12500000      15.12500000      13.10000000      -0.38541748       0.01820763      -0.46965267
Al      13.10000000      17.15000000       5.00000000      -0.00156871       0.01933292      -0.67732421
Al      13.10000000      19.17500000       7.02500000      -0.00130800       0.06874402       0.47154414
Al      15.12500000      17.15000000       7.02500000      -0.03792934       0.00313327       0.36333384
Al      15.12500000      19.17500000       5.00000000       0.00324811       0.06134010      -0.67658316
Al      13.09933268      17.11754094       9.08489952      -0.00387986      -0.01780956       0.01188015
Al      13.09980782      19.21998138      11.07515174      -0.00383910       0.01077041       0.00370273
Al      15.05119952      17.08518213      11.09075229       0.00458984       0.00598887       0.01003117
Al      15.11406716      19.18390694       9.06052980       0.00086774       0.00867240       0.00244686
Al      13.10000000      17.15000000      13.10000000      -0.00983937      -0.35351612      -0.48569156
Al      13.10000000      19.17500000      15.12500000      -0.00072121       0.05894685       0.67073282
Al      15.12500000      17.15000000      15.12500000       0.01304162       0.03090679       0.69280584
Al      15.12500000      19.17500000      13.10000000      -0.01362654       0.12188099      -0.42117724
Al      13.10000000      21.20000000       5.00000000       0.00024555      -0.31023691      -0.61425747
Al      13.10000000      23.22500000       7.02500000      -0.01174655       0.63671210       0.24304626
Al      15.12500000      21.20000000       7.02500000       0.00077831      -0.02955790       0.57210607
Al      15.12500000      23.22500000       5.00000000       0.00013163       0.21050232      -0.15520122
Al      13.09767294      21.26959226       9.06997864       0.00181834       0.02378666      -0.00109317
Al      13.09728828      23.43705669      11.09154730       0.00364754      -0.00012889      -0.03165734
Al      15.13000193      21.27101364      11.05096861      -0.00154133       0.02252099       0.00588822
Al      15.12850546      23.43904072       9.03137116      -0.00137405       0.00127967       0.03444651
Al      13.10000000      21.20000000      13.10000000       0.00105796       0.03447904      -0.51812926
Al      13.10000000      23.22500000      15.12500000       0.00092520       0.20958208       0.15604144
Al      15.12500000      21.20000000      15.12500000       0.00048786      -0.31292132       0.61287545
Al      15.12500000      23.22500000      13.10000000       0.01212548       0.63025375      -0.25075059
Al      17.15000000       5.00000000       5.00000000       0.01416600      -0.20603746      -0.15445381
Al      17.15000000       7.02500000       7.02500000       0.00418840       0.02582196       0.53815002
Al      19.17500000       5.00000000       7.02500000       0.03543372      -0.58979651       0.22753298
Al      19.17500000       7.02500000       5.00000000       0.05262810       0.31596369      -0.60874287
Al      17.15918742       4.79381300       9.03376164       0.00298478      -0.00215015       0.03453515
Al      17.15446984       6.96419363      11.05409240       0.00489102      -0.01537562      -0.00089938
Al      19.18209298       4.81415858      11.09799426       0.00448341       0.00001392      -0.03240157
Al      19.16854541       6.99125761       9.06734669       0.00689812      -0.01202322       0.00315168
Al      17.15000000       5.00000000      13.10000000       0.01188607      -0.61787339      -0.23456719
Al      17.15000000       7.02500000      15.12500000       0.01601473       0.31409898       0.61048085
Al      19.17500000       5.00000000      15.12500000       0.04540573      -0.19812840       0.15273471
Al      19.17500000       7.02500000      13.10000000       0.06267464       0.06791924      -0.55124747
Al      17.15000000       9.05000000       5.00000000       0.01959265      -0.05948144      -0.67037880
Al      17.15000000      11.07500000       7.02500000       0.01016965      -0.01016965       0.36593277
Al      19.17500000       9.05000000       7.02500000       0.10468139      -0.10468139       0.43152641
Al      19.17500000      11.07500000       5.00000000       0.05948144      -0.01959265      -0.67037880
Al      17.14391390       9.04078995       9.05380988       0.01249326      -0.01164138       0.00344392
Al      17.12833552      11.09666448      11.07402155       0.00855895      -0.00855895       0.00429113
Al      19.16837380       9.05662620      11.07285869       0.00938816      -0.00938816      -0.00408364
Al      19.18421005      11.08108610       9.05380988       0.01164138      -0.01249326       0.00344392
Al      17.15000000       9.05000000      13.10000000       0.01317388      -0.12416438      -0.40068540
Al      17.15000000      11.07500000      15.12500000       0.01998581      -0.01998581       0.67043696
Al      19.17500000       9.05000000      15.12500000       0.05546951      -0.05546951       0.66942121
Al      19.17500000      11.07500000      13.10000000       0.12416438      -0.01317388      -0.40068540
Al      17.15000000      13.10000000       5.00000000       0.02352153      -0.00446109      -0.67519330
Al      17.15000000      15.12500000       7.02500000      -0.04794667       0.00827361       0.41312137
Al      19.17500000      13.10000000       7.02500000       0.13648136      -0.00321875       0.40540075
Al      19.17500000      15.12500000       5.00000000       0.06188562       0.00048009      -0.67224604
Al      17.14199423      13.11211216       9.06036201      -0.00405862      -0.00232692       0.00113642
Al      17.17885702      15.12489285      11.07646827      -0.00118494       0.00151708       0.00406212
Al      19.20403015      13.09734690      11.07182578       0.01279022      -0.00579696       0.00378886
Al      19.20263899      15.12543281       9.04987286       0.01354774       0.00131910      -0.00058283
Al      17.15000000      13.10000000      13.10000000       0.00627285       0.00711437      -0.35988478
Al      17.15000000      15.12500000      15.12500000       0.02077446       0.00145298       0.66877039
Al      19.17500000      13.10000000      15.12500000       0.05911848      -0.00188242       0.67022639
Al      19.17500000      15.12500000      13.10000000       0.20081547       0.00014501      -0.34998800
Al      17.15000000      17.15000000       5.00000000       0.02208562       0.02074161      -0.67464097
Al      17.15000000      19.17500000       7.02500000      -0.00855827       0.11865934       0.41661308
Al      19.17500000      17.15000000       7.02500000       0.12010285       0.02010259       0.40674020
Al      19.17500000      19.17500000       5.00000000       0.05606211       0.05560831      -0.67084695
Al      17.13764588      17.14168395       9.06143090      -0.00098929       0.00486894       0.00270062
Al      17.12625687      19.16774763      11.07396133       0.00772499       0.01183240       0.00120948
Al      19.19656640      17.15235970      11.07191790       0.00751085       0.00795957      -0.00032060
Al      19.17113369      19.17225810       9.05332660       0.00413766       0.00775815       0.00752364
Al      17.15000000      17.15000000      13.10000000      -0.00367489       0.02499667      -0.37215437
Al      17.15000000      19.17500000      15.12500000       0.01762738       0.05745279       0.67206501
Al      19.17500000      17.15000000      15.12500000       0.05751251       0.01694015       0.66943373
Al      19.17500000      19.17500000      13.10000000       0.09156607       0.10827759      -0.43742194
Al      17.15000000      21.20000000       5.00000000       0.01621235      -0.31291284      -0.61258354
Al      17.15000000      23.22500000       7.02500000       0.01550371       0.60846932       0.24141733
Al      19.17500000      21.20000000       7.02500000       0.05957040      -0.06953124       0.54853479
Al      19.17500000      23.22500000       5.00000000       0.04515637       0.19875430      -0.15423480
Al      17.14919970      21.25254181       9.07082544       0.00021800       0.01585822       0.00358005
Al      17.16060025      23.43132626      11.09019304      -0.00147101       0.00228366      -0.03326672
Al      19.16307885      21.22739462      11.05827519       0.00186821       0.01294142      -0.00215073
Al      19.18116121      23.40416012       9.02737671       0.00100629       0.00380984       0.03231848
Al      17.15000000      21.20000000      13.10000000      -0.00311654      -0.04077804      -0.54925130
Al      17.15000000      23.22500000      15.12500000       0.01348463       0.20672662       0.15572725
Al      19.17500000      21.20000000      15.12500000       0.05189559      -0.31591667       0.61056919
Al      19.17500000      23.22500000      13.10000000       0.03503799       0.58444561      -0.23278398
Al      21.20000000       5.00000000       5.00000000      -0.44992485      -0.09071393      -0.06577719
Al      21.20000000       7.02500000       7.02500000      -0.14649831       0.14649831       0.66097688
Al      23.22500000       5.00000000       7.02500000       0.04391797      -0.04391797       0.52261036
Al      23.22500000       7.02500000       5.00000000       0.09071393       0.44992485      -0.06577719
Al      21.17795521       4.87758290       9.04611246       0.00532282      -0.00069837       0.02964787
Al      21.19622451       7.02877549      11.04384142       0.01224863      -0.01224863      -0.00106225
Al      23.24822551       4.97677449      11.07575858       0.00106331      -0.00106331      -0.06003913
Al      23.34741710       7.04704479       9.04611246       0.00069837      -0.00532282       0.02964787
Al      21.20000000       5.00000000      13.10000000      -0.24481523      -0.48194691      -0.36990608
Al      21.20000000       7.02500000      15.12500000      -0.31512542       0.31512542       0.55553812
Al      23.22500000       5.00000000      15.12500000      -0.33330740       0.33330740      -0.34344583
Al      23.22500000       7.02500000      13.10000000       0.48194691       0.24481523      -0.36990608
Al      21.20000000       9.05000000       5.00000000      -0.31596369      -0.05262810      -0.60874287
Al      21.20000000      11.07500000       7.02500000      -0.02582196      -0.00418840       0.53815002
Al      23.22500000       9.05000000       7.02500000       0.58979651      -0.03543372       0.22753298
Al      23.22500000      11.07500000       5.00000000       0.20603746      -0.01416600      -0.15445381
Al      21.23374239       9.05645459       9.06734669       0.01202322      -0.00689812       0.00315168
Al      21.26080637      11.07053016      11.05409240       0.01537562      -0.00489102      -0.00089938
Al      23.41084142       9.04290702      11.09799426      -0.00001392      -0.00448341      -0.03240157
Al      23.43118700      11.06581258       9.03376164       0.00215015      -0.00298478       0.03453515
Al      21.20000000       9.05000000      13.10000000      -0.06791924      -0.06267464      -0.55124747
Al      21.20000000      11.07500000      15.12500000      -0.31409898      -0.01601473       0.61048085
Al      23.22500000       9.05000000      15.12500000       0.19812840      -0.04540573       0.15273471
Al      23.22500000      11.07500000      13.10000000       0.61787339      -0.01188607      -0.23456719
Al      21.20000000      13.10000000       5.00000000      -0.31189129      -0.00156232      -0.61183950
Al      21.20000000      15.12500000       7.02500000       0.00934227      -0.00073107       0.53564846
Al      23.22500000      13.10000000       7.02500000       0.62850824      -0.01157666       0.24793114
Al      23.22500000      15.12500000       5.00000000       0.20947741      -0.00111759      -0.15492276
Al      21.26761947      13.09718085       9.07152535       0.02401305      -0.00251768      -0.00194055
Al      21.26640074      15.12750509      11.05217575       0.02331166      -0.00376145       0.00414505
Al      23.43634670      13.09800250      11.09235255       0.00023648      -0.00087127      -0.03294770
Al      23.43633595      15.12782442       9.03226071       0.00189962      -0.00421549       0.03367690
Al      21.20000000      13.10000000      13.10000000       0.00363930      -0.00023385      -0.54129973
Al      21.20000000      15.12500000      15.12500000      -0.31276265      -0.00037341       0.61236987
Al      23.22500000      13.10000000      15.12500000       0.20921717      -0.00057952       0.15508065
Al      23.22500000      15.12500000      13.10000000       0.62479636       0.01161558      -0.25228444
Al      21.20000000      17.15000000       5.00000000      -0.31338224       0.01458188      -0.61102334
Al      21.20000000      19.17500000       7.02500000      -0.06564529       0.06497387       0.54640812
Al      23.22500000      17.15000000       7.02500000       0.62138838       0.01176291       0.22913498
Al      23.22500000      19.17500000       5.00000000       0.19916507       0.04474685      -0.15318673
Al      21.26120157      17.15523645       9.06940761       0.01592422       0.00069837       0.00278891
Al      21.23866083      19.17226989      11.05758254       0.01091396       0.00401593      -0.00302637
Al      23.43009015      17.15952981      11.09083828       0.00393722      -0.00162356      -0.03368480
Al      23.41196387      19.18247173       9.02624776       0.00418724       0.00252014       0.03236144
Al      21.20000000      17.15000000      13.10000000      -0.01032991       0.00326854      -0.52482121