299
Lattice="28.224999999999998 0.0 0.0 0.0 28.224999999999998 0.0 0.0 0.0 20.125" Properties=species:S:1:pos:R:3:forces:R:3 energy=-16469.309965353616 pbc="T T T"
Al       5.00000000       5.00000000       5.00000000       0.33216590       0.33213283       0.34386188
Al       5.00000000       7.02500000       7.02500000      -0.48337212       0.24509563       0.36499935
Al       7.02500000       5.00000000       7.02500000       0.24180420      -0.48348048       0.35991520
Al       7.02500000       7.02500000       5.00000000       0.31260427       0.31291838      -0.55608804
Al       4.97745761       4.97723197       9.04833764      -0.00966488      -0.00862837       0.07309174
Al       4.88311327       7.04815486      11.07928502      -0.01403169      -0.00729678      -0.03524734
Al       7.04641974       4.87399614      11.07992906      -0.00889451      -0.01321572      -0.03584148
Al       7.02844365       7.02691293       9.08167027      -0.01644705      -0.01411916      -0.00909099
Al       5.00000000       5.00000000      13.10000000      -0.04753177      -0.04338515      -0.51812649
Al       5.00000000       7.02500000      15.12500000      -0.09372262       0.44846435       0.06534081
Al       7.02500000       5.00000000      15.12500000       0.44839822      -0.09432210       0.06414472
Al       7.02500000       7.02500000      13.10000000       0.14652493       0.14784841      -0.65836303
Al       5.00000000       9.05000000       5.00000000      -0.20151562      -0.04386041      -0.15379941
Al       5.00000000      11.07500000       7.02500000      -0.60578965      -0.01287275       0.23479905
Al       7.02500000       9.05000000       7.02500000       0.07050872      -0.05666732       0.54830251
Al       7.02500000      11.07500000       5.00000000       0.31614219      -0.01029305      -0.61260542
Al       4.82107557       9.04385011       9.02682529      -0.01288801      -0.00130948       0.03934958
Al       4.79411003      11.06485536      11.09091276      -0.01143101       0.00073408      -0.03995803
Al       6.99730754       9.06191357      11.05747754      -0.01606948      -0.00076812       0.01558106
Al       6.97206568      11.07626172       9.07135358      -0.01469675       0.00184828      -0.01104744
Al       5.00000000       9.05000000      13.10000000      -0.58260108      -0.03461147      -0.22747649
Al       5.00000000      11.07500000      15.12500000      -0.20717475      -0.01116113       0.15487649
Al       7.02500000       9.05000000      15.12500000       0.31557314      -0.04916337       0.61081649
Al       7.02500000      11.07500000      13.10000000       0.04569926       0.00803926      -0.54605099
Al       5.00000000      13.10000000       5.00000000      -0.20895508       0.00182760      -0.15398676
Al       5.00000000      15.12500000       7.02500000      -0.63182516       0.01186551       0.23292850
Al       7.02500000      13.10000000       7.02500000       0.03710929       0.00314510       0.56550994
Al       7.02500000      15.12500000       5.00000000       0.31648507      -0.00150711      -0.61245517
Al       4.78665077      13.09693397       9.03043014      -0.01072985       0.00093662       0.04166514
Al       4.78875029      15.12743968      11.09253585      -0.00898950      -0.00155126      -0.03832518
Al       6.95330868      13.09538210      11.05094138      -0.01338661       0.00321268       0.01862745
Al       6.95482867      15.12728046       9.07007956      -0.01569935      -0.00156370      -0.01318346
Al       5.00000000      13.10000000      13.10000000      -0.62603337      -0.01040135      -0.24016332
Al       5.00000000      15.12500000      15.12500000      -0.20757204      -0.00115825       0.15442238
Al       7.02500000      13.10000000      15.12500000       0.31963339       0.00316556       0.61102297
Al       7.02500000      15.12500000      13.10000000      -0.02445358      -0.00128085      -0.51172383
Al       5.00000000      17.15000000       5.00000000      -0.20746939       0.01095491      -0.15441084
Al       5.00000000      19.17500000       7.02500000      -0.58351443       0.03516570       0.22109635
Al       7.02500000      17.15000000       7.02500000       0.04866550       0.00068782       0.55248192
Al       7.02500000      19.17500000       5.00000000       0.31580395       0.04908443      -0.61113038
Al       4.79277426      17.16052035       9.03228246      -0.01221362      -0.00126575       0.04272960
Al       4.81313797      19.18388830      11.09836385      -0.01116729      -0.00018820      -0.03701626
Al       6.96005497      17.15690273      11.05275840      -0.01134437      -0.00320289       0.01670051
Al       6.99471578      19.16681705       9.06841380      -0.01248652       0.00032833      -0.01001196
Al       5.00000000      17.15000000      13.10000000      -0.61886946       0.01143725      -0.22527865
Al       5.00000000      19.17500000      15.12500000      -0.20087256       0.04368150       0.15279876
Al       7.02500000      17.15000000      15.12500000       0.31939166       0.00963766       0.61042018
Al       7.02500000      19.17500000      13.10000000       0.08401910       0.05541728      -0.55791627
Al       5.00000000      21.20000000       5.00000000      -0.09404108      -0.44874564      -0.06544041
Al       5.00000000      23.22500000       7.02500000      -0.04550467       0.04550467       0.51983642
Al       7.02500000      21.20000000       7.02500000       0.15303258      -0.15303258       0.65351760
Al       7.02500000      23.22500000       5.00000000       0.44874564       0.09404108      -0.06544041
Al       4.88160575      21.17654094       9.04483322      -0.01381581       0.00713455       0.03773059
Al       4.98101680      23.24398320      11.07504080      -0.00899099       0.00899099      -0.07050887
Al       7.03398177      21.19101823      11.04427502      -0.01257357       0.01257357       0.01270668
Al       7.04845906      23.34339425       9.04483322      -0.00713455       0.01381581       0.03773059
Al       5.00000000      21.20000000      13.10000000      -0.47554151      -0.24456636      -0.36263012
Al       5.00000000      23.22500000      15.12500000       0.33318640      -0.33318640      -0.34286634
Al       7.02500000      21.20000000      15.12500000       0.31377428      -0.31377428       0.55625227
Al       7.02500000      23.22500000      13.10000000       0.24456636       0.47554151      -0.36263012
Al       9.05000000       5.00000000       5.00000000      -0.04418759      -0.20217119      -0.15281473
Al       9.05000000       7.02500000       7.02500000      -0.06384287       0.06709908       0.54636864
Al      11.07500000       5.00000000       7.02500000      -0.01128158      -0.61923831       0.22274017
Al      11.07500000       7.02500000       5.00000000      -0.01056552       0.31635699      -0.61161329
Al       9.04224129       4.81322386       9.02569501      -0.00280036      -0.01330864       0.03943056
Al       9.05243162       6.98612575      11.05671714      -0.00325627      -0.01442756       0.01553447
Al      11.06572441       4.79521854      11.09146653      -0.00037752      -0.01318054      -0.03955407
Al      11.06988442       6.96349080       9.07006161       0.00016780      -0.01609227      -0.01296876
Al       9.05000000       5.00000000      13.10000000      -0.03501345      -0.59485244      -0.21524123
Al       9.05000000       7.02500000      15.12500000      -0.04944095       0.31560813       0.60987797
Al      11.07500000       5.00000000      15.12500000      -0.01146541      -0.20749268       0.15465977
Al      11.07500000       7.02500000      13.10000000      -0.00096415       0.01447464      -0.52185719
Al       9.05000000       9.05000000       5.00000000      -0.04945753      -0.04879699      -0.67246048
Al       9.05000000      11.07500000       7.02500000      -0.10967295       0.01809222       0.41447936
Al      11.07500000       9.05000000       7.02500000      -0.01371912      -0.10928164       0.40487545
Al      11.07500000      11.07500000       5.00000000      -0.01039383      -0.00959600      -0.67118523
Al       9.05244623       9.05387898       9.05433262      -0.00437665       0.00008285      -0.01498112
Al       9.05691070      11.09889980      11.07310722      -0.00314328       0.00291046       0.02383175
Al      11.07246335       9.02834041      11.07100995       0.00039125       0.00138315       0.02283748
Al      11.08331175      11.08771450       9.06202849       0.00280172       0.01121804      -0.01693147
Al       9.05000000       9.05000000      13.10000000      -0.10407424      -0.08573719      -0.43734849
Al       9.05000000      11.07500000      15.12500000      -0.04657186      -0.00766350       0.67107445
Al      11.07500000       9.05000000      15.12500000      -0.00952958      -0.04630712       0.66913779
Al      11.07500000      11.07500000      13.10000000      -0.01381857       0.01926797      -0.36788495
Al       9.05000000      13.10000000       5.00000000      -0.04881358       0.00184061      -0.67367170
Al       9.05000000      15.12500000       7.02500000      -0.05796205      -0.00042710       0.46633021
Al      11.07500000      13.10000000       7.02500000       0.00824571       0.04468636       0.35579104
Al      11.07500000      15.12500000       5.00000000      -0.00748898      -0.00192213      -0.67061358
Al       9.04057884      13.11122885       9.06108597       0.00349400       0.00344629      -0.01443275
Al       9.00462501      15.12538792      11.07457414       0.00214930      -0.00002026       0.02478446
Al      11.14025169      13.17425900      11.09012314       0.00194965       0.00238976       0.03200849
Al      11.10723304      15.12584232       9.08491831       0.03312567      -0.00109815      -0.00206509
Al       9.05000000      13.10000000      13.10000000      -0.10679526       0.02076288      -0.41783904
Al       9.05000000      15.12500000      15.12500000      -0.04345680      -0.00148462       0.66577375
Al      11.07500000      13.10000000      15.12500000      -0.01701377      -0.00490368       0.68422805
Al      11.07500000      15.12500000      13.10000000       0.36422346       0.00672020      -0.47511423
Al       9.05000000      17.15000000       5.00000000      -0.04938524       0.01112849      -0.67406765
Al       9.05000000      19.17500000       7.02500000      -0.08094450       0.08094450       0.45141673
Al      11.07500000      17.15000000       7.02500000       0.01527451      -0.01527451       0.36519313
Al      11.07500000      19.17500000       5.00000000      -0.01112849       0.04938524      -0.67406765
Al       9.04813867      17.13927165       9.06140431       0.00477872      -0.00235243      -0.01217489
Al       9.07072707      19.15427293      11.07341597      -0.00031700       0.00031700       0.02174393
Al      11.14521298      17.07978702      11.08907126       0.00025104      -0.00025104       0.03145684
Al      11.08572835      19.17686133       9.06140431       0.00235243      -0.00477872      -0.01217489
Al       9.05000000      17.15000000      13.10000000      -0.09354202      -0.00461111      -0.42079962
Al       9.05000000      19.17500000      15.12500000      -0.04644724       0.04644724       0.67161937
Al      11.07500000      17.15000000      15.12500000      -0.01767955       0.01767955       0.68575344
Al      11.07500000      19.17500000      13.10000000       0.00461111       0.09354202      -0.42079962
Al       9.05000000      21.20000000       5.00000000      -0.04908443      -0.31580395      -0.61113038
Al       9.05000000      23.22500000       7.02500000      -0.03516570       0.58351443       0.22109635
Al      11.07500000      21.20000000       7.02500000      -0.00068782      -0.04866550       0.55248192
Al      11.07500000      23.22500000       5.00000000      -0.01095491       0.20746939      -0.15441084
Al       9.05818295      21.23028422       9.06841380      -0.00032833       0.01248652      -0.01001196
Al       9.04111170      23.41186203      11.09836385       0.00018820       0.01116729      -0.03701626
Al      11.06809727      21.26494503      11.05275840       0.00320289       0.01134437       0.01670051
Al      11.06447965      23.43222574       9.03228246       0.00126575       0.01221362       0.04272960
Al       9.05000000      21.20000000      13.10000000      -0.05541728      -0.08401910      -0.55791627
Al       9.05000000      23.22500000      15.12500000      -0.04368150       0.20087256       0.15279876
Al      11.07500000      21.20000000      15.12500000      -0.00963766      -0.31939166       0.61042018
Al      11.07500000      23.22500000      13.10000000      -0.01143725       0.61886946      -0.22527865
Al      13.10000000       5.00000000       5.00000000       0.00140780      -0.20930188      -0.15446282
Al      13.10000000       7.02500000       7.02500000       0.00119281      -0.00235430       0.52970482
Al      15.12500000       5.00000000       7.02500000       0.01063375      -0.62658741       0.23761128
Al      15.12500000       7.02500000       5.00000000      -0.00165009       0.31670770      -0.61206879
Al      13.09748890       4.78912298       9.03133095       0.00195302      -0.01238127       0.04092239
Al      13.09773170       6.95785924      11.05198209       0.00203491      -0.01616265       0.01838997
Al      15.12680980       4.78923242      11.09327916       0.00142413      -0.01157408      -0.03862197
Al      15.12765641       6.95666637       9.07172296       0.00125600      -0.01781743      -0.01479780
Al      13.10000000       5.00000000      13.10000000      -0.01153699      -0.62204970      -0.24127259
Al      13.10000000       7.02500000      15.12500000       0.00190336       0.31751286       0.61172417
Al      15.12500000       5.00000000      15.12500000      -0.00067535      -0.20872830       0.15418952
Al      15.12500000       7.02500000      13.10000000      -0.00193345       0.00232074      -0.53374341
Al      13.10000000       9.05000000       5.00000000       0.00185649      -0.04834705      -0.67055633
Al      13.10000000      11.07500000       7.02500000      -0.00471478       0.06176088       0.40502186
Al      15.12500000       9.05000000       7.02500000      -0.00218435      -0.12279641       0.40196159
Al      15.12500000      11.07500000       5.00000000      -0.00189781      -0.00920715      -0.66965967
Al      13.09956805       9.02214818       9.05059079       0.00122059      -0.00145573      -0.01981174
Al      13.10015251      11.04671257      11.07589994       0.00144324       0.01058085       0.02782627
Al      15.12768168       9.02060453      11.07116393      -0.00069908       0.00034182       0.02416408
Al      15.11274489      11.08353036       9.06083927      -0.00338648       0.01217048      -0.01850149
Al      13.10000000       9.05000000      13.10000000       0.00198557      -0.18569788      -0.34694709
Al      13.10000000      11.07500000      15.12500000       0.00219899      -0.00409072       0.66147976
Al      15.12500000       9.05000000      15.12500000      -0.00265171      -0.04588855       0.66865188
Al      15.12500000      11.07500000      13.10000000      -0.01533986       0.01127771      -0.35297038
Al      13.10000000      13.10000000       5.00000000       0.00221324       0.00473928      -0.66866668
Al      13.10000000      15.12500000       7.02500000      -0.00700078       0.00700078       0.06935064
Al      15.12500000      13.10000000       7.02500000      -0.04465913       0.04465913       0.34245257
Al      15.12500000      15.12500000       5.00000000      -0.00473928      -0.00221324      -0.66866668
Al      13.09792641      13.14153750       9.08591976       0.00149487       0.03301747      -0.00612254
Al      15.05037121      13.17462879      11.09081431      -0.00160354       0.00160354       0.03489249
Al      15.08346250      15.12707359       9.08591976      -0.03301747      -0.00149487      -0.00612254
Al      13.10000000      13.10000000      13.10000000      -0.01360802       0.39237944      -0.45577896
Al      13.10000000      15.12500000      15.12500000       0.00223520      -0.00223520       0.82333612
Al      15.12500000      13.10000000      15.12500000       0.00490900      -0.00490900       0.68172851
Al      15.12500000      15.12500000      13.10000000      -0.39237944       0.01360802      -0.45577896
Al      13.10000000      17.15000000       5.00000000       0.00192213       0.00748898      -0.67061358
Al      13.10000000      19.17500000       7.02500000       0.00042710       0.05796205       0.46633021
Al      15.12500000      17.15000000       7.02500000      -0.04468636      -0.00824571       0.35579104
Al      15.12500000      19.17500000       5.00000000      -0.00184061       0.04881358      -0.67367170
Al      13.09915768      17.11776696       9.08491831       0.00109815      -0.03312567      -0.00206509
Al      13.09961208      19.22037499      11.07457414       0.00002026      -0.00214930       0.02478446
Al      15.05074100      17.08474831      11.09012314      -0.00238976      -0.00194965       0.03200849
Al      15.11377115      19.18442116       9.06108597      -0.00344629      -0.00349400      -0.01443275
Al      13.10000000      17.15000000      13.10000000      -0.00672020      -0.36422346      -0.47511423
Al      13.10000000      19.17500000      15.12500000       0.00148462       0.04345680       0.66577375
Al      15.12500000      17.15000000      15.12500000       0.00490368       0.01701377       0.68422805
Al      15.12500000      19.17500000      13.10000000      -0.02076288       0.10679526      -0.41783904
Al      13.10000000      21.20000000       5.00000000       0.00150711      -0.31648507      -0.61245517
Al      13.10000000      23.22500000       7.02500000      -0.01186551       0.63182516       0.23292850
Al      15.12500000      21.20000000       7.02500000      -0.00314510      -0.03710929       0.56550994
Al      15.12500000      23.22500000       5.00000000      -0.00182760       0.20895508      -0.15398676
Al      13.09771954      21.27017133       9.07007956       0.00156370       0.01569935      -0.01318346
Al      13.09756032      23.43624971      11.09253585       0.00155126       0.00898950      -0.03832518
Al      15.12961790      21.27169132      11.05094138      -0.00321268       0.01338661       0.01862745
Al      15.12806603      23.43834923       9.03043014      -0.00093662       0.01072985       0.04166514
Al      13.10000000      21.20000000      13.10000000       0.00128085       0.02445358      -0.51172383
Al      13.10000000      23.22500000      15.12500000       0.00115825       0.20757204       0.15442238
Al      15.12500000      21.20000000      15.12500000      -0.00316556      -0.31963339       0.61102297
Al      15.12500000      23.22500000      13.10000000       0.01040135       0.62603337      -0.24016332
Al      17.15000000       5.00000000       5.00000000       0.01192043      -0.20810003      -0.15471216
Al      17.15000000       7.02500000       7.02500000       0.00065079       0.02862364       0.53482048
Al      19.17500000       5.00000000       7.02500000       0.03609298      -0.58986617       0.22230518
Al      19.17500000       7.02500000       5.00000000       0.05021596       0.31477202      -0.61051329
Al      17.15907714       4.79408294       9.03308363       0.00364409      -0.01281624       0.04228109
Al      17.15441799       6.96378289      11.05360891       0.00301811      -0.01626093       0.01529100
Al      19.18247214       4.81451796      11.09858061       0.00464952      -0.01084657      -0.03783186
Al      19.16884884       6.99100192       9.06802869       0.00654383      -0.01678075      -0.01187680
Al      17.15000000       5.00000000      13.10000000       0.01137046      -0.61635111      -0.22684571
Al      17.15000000       7.02500000      15.12500000       0.01154986       0.31605661       0.61103957
Al      19.17500000       5.00000000      15.12500000       0.04478669      -0.20089969       0.15194966
Al      19.17500000       7.02500000      13.10000000       0.06214304       0.06773125      -0.54841402
Al      17.15000000       9.05000000       5.00000000       0.01080018      -0.04912795      -0.67179149
Al      17.15000000      11.07500000       7.02500000      -0.00266636       0.00266636       0.36115296
Al      19.17500000       9.05000000       7.02500000       0.10064267      -0.10064267       0.43052249
Al      19.17500000      11.07500000       5.00000000       0.04912795      -0.01080018      -0.67179149
Al      17.14406815       9.04048066       9.05462392       0.00263348      -0.00327393      -0.01706082
Al      17.12817728      11.09682272      11.07334268      -0.00257965       0.00257965       0.02717465
Al      19.16868011       9.05631989      11.07202924       0.00600918      -0.00600918       0.01911222
Al      19.18451934      11.08093185       9.05462392       0.00327393      -0.00263348      -0.01706082
Al      17.15000000       9.05000000      13.10000000       0.00565301      -0.11497344      -0.39710470
Al      17.15000000      11.07500000      15.12500000       0.00747332      -0.00747332       0.66784129
Al      19.17500000       9.05000000      15.12500000       0.04991585      -0.04991585       0.67147787
Al      19.17500000      11.07500000      13.10000000       0.11497344      -0.00565301      -0.39710470
Al      17.15000000      13.10000000       5.00000000       0.00920715       0.00189781      -0.66965967
Al      17.15000000      15.12500000       7.02500000      -0.06176088       0.00471478       0.40502186
Al      19.17500000      13.10000000       7.02500000       0.12279641       0.00218435       0.40196159
Al      19.17500000      15.12500000       5.00000000       0.04834705      -0.00185649      -0.67055633
Al      17.14146964      13.11225511       9.06083927      -0.01217048       0.00338648      -0.01850149
Al      17.17828743      15.12484749      11.07589994      -0.01058085      -0.00144324       0.02782627
Al      19.20439547      13.09731832      11.07116393      -0.00034182       0.00069908       0.02416408
Al      19.20285182      15.12543195       9.05059079       0.00145573      -0.00122059      -0.01981174
Al      17.15000000      13.10000000      13.10000000      -0.01127771       0.01533986      -0.35297038
Al      17.15000000      15.12500000      15.12500000       0.00409072      -0.00219899       0.66147976
Al      19.17500000      13.10000000      15.12500000       0.04588855       0.00265171       0.66865188
Al      19.17500000      15.12500000      13.10000000       0.18569788      -0.00198557      -0.34694709
Al      17.15000000      17.15000000       5.00000000       0.00959600       0.01039383      -0.67118523
Al      17.15000000      19.17500000       7.02500000      -0.01809222       0.10967295       0.41447936
Al      19.17500000      17.15000000       7.02500000       0.10928164       0.01371912       0.40487545
Al      19.17500000      19.17500000       5.00000000       0.04879699       0.04945753      -0.67246048
Al      17.13728550      17.14168825       9.06202849      -0.01121804      -0.00280172      -0.01693147
Al      17.12610020      19.16808930      11.07310722      -0.00291046       0.00314328       0.02383175
Al      19.19665959      17.15253665      11.07100995      -0.00138315      -0.00039125       0.02283748
Al      19.17112102      19.17255377       9.05433262      -0.00008285       0.00437665      -0.01498112
Al      17.15000000      17.15000000      13.10000000      -0.01926797       0.01381857      -0.36788495
Al      17.15000000      19.17500000      15.12500000       0.00766350       0.04657186       0.67107445
Al      19.17500000      17.15000000      15.12500000       0.04630712       0.00952958       0.66913779
Al      19.17500000      19.17500000      13.10000000       0.08573719       0.10407424      -0.43734849
Al      17.15000000      21.20000000       5.00000000       0.01029305      -0.31614219      -0.61260542
Al      17.15000000      23.22500000       7.02500000       0.01287275       0.60578965       0.23479905
Al      19.17500000      21.20000000       7.02500000       0.05666732      -0.07050872       0.54830251
Al      19.17500000      23.22500000       5.00000000       0.04386041       0.20151562      -0.15379941
Al      17.14873828      21.25293432       9.07135358      -0.00184828       0.01469675      -0.01104744
Al      17.16014464      23.43088997      11.09091276      -0.00073408       0.01143101      -0.03995803
Al      19.16308643      21.22769246      11.05747754       0.00076812       0.01606948       0.01558106
Al      19.18114989      23.40392443       9.02682529       0.00130948       0.01288801       0.03934958
Al      17.15000000      21.20000000      13.10000000      -0.00803926      -0.04569926      -0.54605099
Al      17.15000000      23.22500000      15.12500000       0.01116113       0.20717475       0.15487649
Al      19.17500000      21.20000000      15.12500000       0.04916337      -0.31557314       0.61081649
Al      19.17500000      23.22500000      13.10000000       0.03461147       0.58260108      -0.22747649
Al      21.20000000       5.00000000       5.00000000      -0.44810076      -0.09422231      -0.06452497
Al      21.20000000       7.02500000       7.02500000      -0.14524681       0.14524681       0.65758051
Al      23.22500000       5.00000000       7.02500000       0.04596600      -0.04596600       0.51755505
Al      23.22500000       7.02500000       5.00000000       0.09422231       0.44810076      -0.06452497
Al      21.17809884       4.87807349       9.04532582       0.00878290      -0.01171757       0.03778488
Al      21.19654274       7.02845726      11.04365189       0.01566267      -0.01566267       0.01121952
Al      23.24761303       4.97738697      11.07687222       0.00691221      -0.00691221      -0.07223138
Al      23.34692651       7.04690116       9.04532582       0.01171757      -0.00878290       0.03778488
Al      21.20000000       5.00000000      13.10000000      -0.24377676      -0.48090461      -0.36194547
Al      21.20000000       7.02500000      15.12500000      -0.31269212       0.31269212       0.55452349
Al      23.22500000       5.00000000      15.12500000      -0.33324460       0.33324460      -0.34493560
Al      23.22500000       7.02500000      13.10000000       0.48090461       0.24377676      -0.36194547
Al      21.20000000       9.05000000       5.00000000      -0.31477202      -0.05021596      -0.61051329
Al      21.20000000      11.07500000       7.02500000      -0.02862364      -0.00065079       0.53482048
Al      23.22500000       9.05000000       7.02500000       0.58986617      -0.03609298       0.22230518
Al      23.22500000      11.07500000       5.00000000       0.20810003      -0.01192043      -0.15471216
Al      21.23399808       9.05615116       9.06802869       0.01678075      -0.00654383      -0.01187680
Al      21.26121711      11.07058201      11.05360891       0.01626093      -0.00301811       0.01529100
Al      23.41048204       9.04252786      11.09858061       0.01084657      -0.00464952      -0.03783186
Al      23.43091706      11.06592286       9.03308363       0.01281624      -0.00364409       0.04228109
Al      21.20000000       9.05000000      13.10000000      -0.06773125      -0.06214304      -0.54841402
Al      21.20000000      11.07500000      15.12500000      -0.31605661      -0.01154986       0.61103957
Al      23.22500000       9.05000000      15.12500000       0.20089969      -0.04478669       0.15194966
Al      23.22500000      11.07500000      13.10000000       0.61635111      -0.01137046      -0.22684571
Al      21.20000000      13.10000000       5.00000000      -0.31670770       0.00165009      -0.61206879
Al      21.20000000      15.12500000       7.02500000       0.00235430      -0.00119281       0.52970482
Al      23.22500000      13.10000000       7.02500000       0.62658741      -0.01063375       0.23761128
Al      23.22500000      15.12500000       5.00000000       0.20930188      -0.00140780      -0.15446282
Al      21.26833363      13.09734359       9.07172296       0.01781743      -0.00125600      -0.01479780
Al      21.26714076      15.12726830      11.05198209       0.01616265      -0.00203491       0.01838997
Al      23.43576758      13.09819020      11.09327916       0.01157408      -0.00142413      -0.03862197
Al      23.43587702      15.12751110       9.03133095       0.01238127      -0.00195302       0.04092239
Al      21.20000000      13.10000000      13.10000000      -0.00232074       0.00193345      -0.53374341
Al      21.20000000      15.12500000      15.12500000      -0.31751286      -0.00190336       0.61172417
Al      23.22500000      13.10000000      15.12500000       0.20872830       0.00067535       0.15418952
Al      23.22500000      15.12500000      13.10000000       0.62204970       0.01153699      -0.24127259
Al      21.20000000      17.15000000       5.00000000      -0.31635699       0.01056552      -0.61161329
Al      21.20000000      19.17500000       7.02500000      -0.06709908       0.06384287       0.54636864
Al      23.22500000      17.15000000       7.02500000       0.61923831       0.01128158       0.22274017
Al      23.22500000      19.17500000       5.00000000       0.20217119       0.04418759      -0.15281473
Al      21.26150920      17.15511558       9.07006161       0.01609227      -0.00016780      -0.01296876
Al      21.23887425      19.17256838      11.05671714       0.01442756       0.00325627       0.01553447
Al      23.42978146      17.15927559      11.09146653       0.01318054       0.00037752      -0.03955407
Al      23.41177614      19.18275871       9.02569501       0.01330864       0.00280036       0.03943056
Al      21.20000000      17.15000000      13.10000000      -0.01447464       0.00096415      -0.52185719