299
Lattice="28.224999999999998 0.0 0.0 0.0 28.224999999999998 0.0 0.0 0.0 20.125" Properties=species:S:1:pos:R:3:forces:R:3 energy=-16469.309893825008 pbc="T T T"
Al       5.00000000       5.00000000       5.00000000       0.33211738       0.33206022       0.34390752
Al       5.00000000       7.02500000       7.02500000      -0.48340480       0.24547005       0.36451061
Al       7.02500000       5.00000000       7.02500000       0.24247684      -0.48363778       0.35932454
Al       7.02500000       7.02500000       5.00000000       0.31270921       0.31300772      -0.55631372
Al       4.97745056       4.97713317       9.04793090      -0.00997795      -0.00882293       0.07433150
Al       4.88312321       7.04797408      11.07922660      -0.01415201      -0.00690557      -0.03519818
Al       7.04632646       4.87392763      11.07988352      -0.00870260      -0.01325634      -0.03579986
Al       7.02842470       7.02680921       9.08165950      -0.01621895      -0.01365113      -0.00930880
Al       5.00000000       5.00000000      13.10000000      -0.04756445      -0.04356016      -0.51778655
Al       5.00000000       7.02500000      15.12500000      -0.09367166       0.44852455       0.06551833
Al       7.02500000       5.00000000      15.12500000       0.44846768      -0.09428867       0.06430920
Al       7.02500000       7.02500000      13.10000000       0.14671309       0.14782430      -0.65863141
Al       5.00000000       9.05000000       5.00000000      -0.20147394      -0.04380368      -0.15397751
Al       5.00000000      11.07500000       7.02500000      -0.60589022      -0.01299902       0.23489956
Al       7.02500000       9.05000000       7.02500000       0.07062421      -0.05672171       0.54863013
Al       7.02500000      11.07500000       5.00000000       0.31633537      -0.01021923      -0.61287566
Al       4.82102326       9.04376667       9.02681244      -0.01278192      -0.00096898       0.03936791
Al       4.79404023      11.06486961      11.09090581      -0.01122897       0.00068719      -0.03993032
Al       6.99725596       9.06182389      11.05742145      -0.01569874      -0.00037423       0.01608664
Al       6.97198114      11.07621606       9.07137482      -0.01416858       0.00200444      -0.01123628
Al       5.00000000       9.05000000      13.10000000      -0.58263595      -0.03487365      -0.22803244
Al       5.00000000      11.07500000      15.12500000      -0.20705925      -0.01108787       0.15504999
Al       7.02500000       9.05000000      15.12500000       0.31576453      -0.04904797       0.61109004
Al       7.02500000      11.07500000      13.10000000       0.04587408       0.00800078      -0.54656760
Al       5.00000000      13.10000000       5.00000000      -0.20887974       0.00186422      -0.15412632
Al       5.00000000      15.12500000       7.02500000      -0.63193875       0.01200200       0.23260169
Al       7.02500000      13.10000000       7.02500000       0.03721322       0.00310480       0.56568271
Al       7.02500000      15.12500000       5.00000000       0.31666322      -0.00152129      -0.61269194
Al       4.78657013      13.09697198       9.03033706      -0.01062327       0.00076499       0.04203545
Al       4.78867777      15.12744213      11.09256892      -0.00887882      -0.00155453      -0.03843364
Al       6.95320821      13.09538351      11.05089109      -0.01274462       0.00319048       0.01893841
Al       6.95472142      15.12729383       9.07006466      -0.01504973      -0.00161018      -0.01315049
Al       5.00000000      13.10000000      13.10000000      -0.62603885      -0.01039239      -0.24008660
Al       5.00000000      15.12500000      15.12500000      -0.20745076      -0.00117020       0.15456269
Al       7.02500000      13.10000000      15.12500000       0.31982744       0.00319710       0.61127629
Al       7.02500000      15.12500000      13.10000000      -0.02428516      -0.00119162      -0.51209929
Al       5.00000000      17.15000000       5.00000000      -0.20740882       0.01091544      -0.15455275
Al       5.00000000      19.17500000       7.02500000      -0.58368464       0.03547565       0.22124640
Al       7.02500000      17.15000000       7.02500000       0.04864263       0.00078218       0.55269326
Al       7.02500000      19.17500000       5.00000000       0.31594931       0.04899925      -0.61137642
Al       4.79265661      17.16053617       9.03222051      -0.01201846      -0.00133590       0.04297209
Al       4.81304977      19.18397653      11.09835092      -0.01099835      -0.00059137      -0.03688166
Al       6.95993429      17.15694737      11.05267953      -0.01071383      -0.00338257       0.01723975
Al       6.99460111      19.16690807       9.06841528      -0.01200805      -0.00002885      -0.01018089
Al       5.00000000      17.15000000      13.10000000      -0.61889978       0.01161463      -0.22542742
Al       5.00000000      19.17500000      15.12500000      -0.20079370       0.04362678       0.15294429
Al       7.02500000      17.15000000      15.12500000       0.31958700       0.00957897       0.61067970
Al       7.02500000      19.17500000      13.10000000       0.08404524       0.05543525      -0.55831688
Al       5.00000000      21.20000000       5.00000000      -0.09403100      -0.44879101      -0.06557447
Al       5.00000000      23.22500000       7.02500000      -0.04571032       0.04571032       0.51933249
Al       7.02500000      21.20000000       7.02500000       0.15296797      -0.15296797       0.65354943
Al       7.02500000      23.22500000       5.00000000       0.44879101       0.09403100      -0.06557447
Al       4.88154194      21.17669691       9.04482840      -0.01389728       0.00682140       0.03787460
Al       4.98097920      23.24402080      11.07540348      -0.00926954       0.00926954      -0.07162242
Al       7.03390033      21.19109967      11.04424543      -0.01215850       0.01215850       0.01314579
Al       7.04830309      23.34345806       9.04482840      -0.00682140       0.01389728       0.03787460
Al       5.00000000      21.20000000      13.10000000      -0.47555204      -0.24502434      -0.36207425
Al       5.00000000      23.22500000      15.12500000       0.33315884      -0.33315884      -0.34292707
Al       7.02500000      21.20000000      15.12500000       0.31388695      -0.31388695       0.55644385
Al       7.02500000      23.22500000      13.10000000       0.24502434       0.47555204      -0.36207425
Al       9.05000000       5.00000000       5.00000000      -0.04413027      -0.20213707      -0.15297517
Al       9.05000000       7.02500000       7.02500000      -0.06368094       0.06705781       0.54660056
Al      11.07500000       5.00000000       7.02500000      -0.01128279      -0.61936703       0.22261611
Al      11.07500000       7.02500000       5.00000000      -0.01050497       0.31654431      -0.61186227
Al       9.04225273       4.81313587       9.02567673      -0.00272671      -0.01324167       0.03943031
Al       9.05243408       6.98600883      11.05666124      -0.00321456      -0.01387977       0.01603755
Al      11.06579965       4.79514795      11.09149475      -0.00059721      -0.01315336      -0.03960428
Al      11.06992942       6.96338045       9.07007444      -0.00001825      -0.01549394      -0.01317209
Al       9.05000000       5.00000000      13.10000000      -0.03509722      -0.59495932      -0.21558478
Al       9.05000000       7.02500000      15.12500000      -0.04932470       0.31579270       0.61013794
Al      11.07500000       5.00000000      15.12500000      -0.01140972      -0.20738549       0.15480477
Al      11.07500000       7.02500000      13.10000000      -0.00092893       0.01457848      -0.52204755
Al       9.05000000       9.05000000       5.00000000      -0.04931050      -0.04865978      -0.67273791
Al       9.05000000      11.07500000       7.02500000      -0.10961208       0.01800408       0.41491964
Al      11.07500000       9.05000000       7.02500000      -0.01363588      -0.10933240       0.40518702
Al      11.07500000      11.07500000       5.00000000      -0.01031532      -0.00951094      -0.67143553
Al       9.05243852       9.05378594       9.05434467      -0.00426320       0.00056361      -0.01514834
Al       9.05689887      11.09886564      11.07304673      -0.00296861       0.00313443       0.02434931
Al      11.07249426       9.02824890      11.07095788       0.00025815       0.00189214       0.02332215
Al      11.08332482      11.08765719       9.06203528       0.00272665       0.01150571      -0.01706101
Al       9.05000000       9.05000000      13.10000000      -0.10396256      -0.08578823      -0.43797279
Al       9.05000000      11.07500000      15.12500000      -0.04641985      -0.00759143       0.67136469
Al      11.07500000       9.05000000      15.12500000      -0.00945487      -0.04615353       0.66940419
Al      11.07500000      11.07500000      13.10000000      -0.01369768       0.01937098      -0.36857917
Al       9.05000000      13.10000000       5.00000000      -0.04865350       0.00186195      -0.67393104
Al       9.05000000      15.12500000       7.02500000      -0.05806739      -0.00044182       0.46661958
Al      11.07500000      13.10000000       7.02500000       0.00810086       0.04448616       0.35590748
Al      11.07500000      15.12500000       5.00000000      -0.00740653      -0.00194448      -0.67085660
Al       9.04051392      13.11119512       9.06108769       0.00391029       0.00358513      -0.01450239
Al       9.00455834      15.12539283      11.07449440       0.00258342      -0.00003716       0.02528546
Al      11.14033480      13.17430220      11.09002478       0.00156137       0.00223500       0.03263384
Al      11.10720633      15.12583486       9.08483924       0.03322863      -0.00102487      -0.00180627
Al       9.05000000      13.10000000      13.10000000      -0.10656611       0.02079374      -0.41861962
Al       9.05000000      15.12500000      15.12500000      -0.04330239      -0.00149246       0.66605675
Al      11.07500000      13.10000000      15.12500000      -0.01690631      -0.00486043       0.68448864
Al      11.07500000      15.12500000      13.10000000       0.36412023       0.00680971      -0.47562173
Al       9.05000000      17.15000000       5.00000000      -0.04923784       0.01105725      -0.67432793
Al       9.05000000      19.17500000       7.02500000      -0.08104222       0.08104222       0.45176654
Al      11.07500000      17.15000000       7.02500000       0.01513323      -0.01513323       0.36539838
Al      11.07500000      19.17500000       5.00000000      -0.01105725       0.04923784      -0.67432793
Al       9.04805097      17.13932248       9.06139753       0.00521522      -0.00257249      -0.01224727
Al       9.07064900      19.15435100      11.07335247       0.00010122      -0.00010122       0.02227690
Al      11.14519907      17.07980093      11.08896464       0.00027526      -0.00027526       0.03217252
Al      11.08567752      19.17694903       9.06139753       0.00257249      -0.00521522      -0.01224727
Al       9.05000000      17.15000000      13.10000000      -0.09349235      -0.00459830      -0.42156703
Al       9.05000000      19.17500000      15.12500000      -0.04631591       0.04631591       0.67189322
Al      11.07500000      17.15000000      15.12500000      -0.01758836       0.01758836       0.68601403
Al      11.07500000      19.17500000      13.10000000       0.00459830       0.09349235      -0.42156703
Al       9.05000000      21.20000000       5.00000000      -0.04899925      -0.31594931      -0.61137642
Al       9.05000000      23.22500000       7.02500000      -0.03547565       0.58368464       0.22124640
Al      11.07500000      21.20000000       7.02500000      -0.00078218      -0.04864263       0.55269326
Al      11.07500000      23.22500000       5.00000000      -0.01091544       0.20740882      -0.15455275
Al       9.05809193      21.23039889       9.06841528       0.00002885       0.01200805      -0.01018089
Al       9.04102347      23.41195023      11.09835092       0.00059137       0.01099835      -0.03688166
Al      11.06805263      21.26506571      11.05267953       0.00338257       0.01071383       0.01723975
Al      11.06446383      23.43234339       9.03222051       0.00133590       0.01201846       0.04297209
Al       9.05000000      21.20000000      13.10000000      -0.05543525      -0.08404524      -0.55831688
Al       9.05000000      23.22500000      15.12500000      -0.04362678       0.20079370       0.15294429
Al      11.07500000      21.20000000      15.12500000      -0.00957897      -0.31958700       0.61067970
Al      11.07500000      23.22500000      13.10000000      -0.01161463       0.61889978      -0.22542742
Al      13.10000000       5.00000000       5.00000000       0.00141054      -0.20922383      -0.15459488
Al      13.10000000       7.02500000       7.02500000       0.00115958      -0.00224718       0.52955306
Al      15.12500000       5.00000000       7.02500000       0.01059821      -0.62666242       0.23717633
Al      15.12500000       7.02500000       5.00000000      -0.00170740       0.31688904      -0.61230809
Al      13.09752873       4.78908296       9.03124369       0.00181776      -0.01257149       0.04121176
Al      13.09775292       6.95777081      11.05197500       0.00192081      -0.01553135       0.01858595
Al      15.12672804       4.78921297      11.09336457       0.00171425      -0.01175305      -0.03887518
Al      15.12762053       6.95658940       9.07170861       0.00140688      -0.01724454      -0.01479919
Al      13.10000000       5.00000000      13.10000000      -0.01165277      -0.62204766      -0.24077393
Al      13.10000000       7.02500000      15.12500000       0.00191115       0.31772325       0.61193582
Al      15.12500000       5.00000000      15.12500000      -0.00073339      -0.20861248       0.15431596
Al      15.12500000       7.02500000      13.10000000      -0.00200715       0.00255071      -0.53366079
Al      13.10000000       9.05000000       5.00000000       0.00184971      -0.04819121      -0.67080666
Al      13.10000000      11.07500000       7.02500000      -0.00469511       0.06152082       0.40507596
Al      15.12500000       9.05000000       7.02500000      -0.00220760      -0.12276235       0.40210886
Al      15.12500000      11.07500000       5.00000000      -0.00195046      -0.00910124      -0.66990273
Al      13.09959426       9.02206260       9.05058780       0.00107626      -0.00091190      -0.01992127
Al      13.10018806      11.04667796      11.07584546       0.00124842       0.01080304       0.02823864
Al      15.12767118       9.02053508      11.07113039      -0.00066900       0.00081323       0.02454742
Al      15.11276214      11.08349735       9.06083002      -0.00348436       0.01235095      -0.01853541
Al      13.10000000       9.05000000      13.10000000       0.00199950      -0.18562722      -0.34723441
Al      13.10000000      11.07500000      15.12500000       0.00221971      -0.00399902       0.66173767
Al      15.12500000       9.05000000      15.12500000      -0.00268656      -0.04571745       0.66889760
Al      15.12500000      11.07500000      13.10000000      -0.01538518       0.01143642      -0.35339752
Al      13.10000000      13.10000000       5.00000000       0.00222605       0.00476358      -0.66888389
Al      13.10000000      15.12500000       7.02500000      -0.00699210       0.00699210       0.06918293
Al      15.12500000      13.10000000       7.02500000      -0.04444450       0.04444450       0.34224893
Al      15.12500000      15.12500000       5.00000000      -0.00476358      -0.00222605      -0.66888389
Al      13.09796126      13.14147767       9.08580199       0.00124761       0.03334196      -0.00575463
Al      15.05030320      13.17469680      11.09074185      -0.00142992       0.00142992       0.03535723
Al      15.08352233      15.12703874       9.08580199      -0.03334196      -0.00124761      -0.00575463
Al      13.10000000      13.10000000      13.10000000      -0.01359194       0.39225195      -0.45589863
Al      13.10000000      15.12500000      15.12500000       0.00225657      -0.00225657       0.82353267
Al      15.12500000      13.10000000      15.12500000       0.00486553      -0.00486553       0.68195902
Al      15.12500000      15.12500000      13.10000000      -0.39225195       0.01359194      -0.45589863
Al      13.10000000      17.15000000       5.00000000       0.00194448       0.00740653      -0.67085660
Al      13.10000000      19.17500000       7.02500000       0.00044182       0.05806739       0.46661958
Al      15.12500000      17.15000000       7.02500000      -0.04448616      -0.00810086       0.35590748
Al      15.12500000      19.17500000       5.00000000      -0.00186195       0.04865350      -0.67393104
Al      13.09916514      17.11779367       9.08483924       0.00102487      -0.03322863      -0.00180627
Al      13.09960717      19.22044166      11.07449440       0.00003716      -0.00258342       0.02528546
Al      15.05069780      17.08466520      11.09002478      -0.00223500      -0.00156137       0.03263384
Al      15.11380488      19.18448608       9.06108769      -0.00358513      -0.00391029      -0.01450239
Al      13.10000000      17.15000000      13.10000000      -0.00680971      -0.36412023      -0.47562173
Al      13.10000000      19.17500000      15.12500000       0.00149246       0.04330239       0.66605675
Al      15.12500000      17.15000000      15.12500000       0.00486043       0.01690631       0.68448864
Al      15.12500000      19.17500000      13.10000000      -0.02079374       0.10656611      -0.41861962
Al      13.10000000      21.20000000       5.00000000       0.00152129      -0.31666322      -0.61269194
Al      13.10000000      23.22500000       7.02500000      -0.01200200       0.63193875       0.23260169
Al      15.12500000      21.20000000       7.02500000      -0.00310480      -0.03721322       0.56568271
Al      15.12500000      23.22500000       5.00000000      -0.00186422       0.20887974      -0.15412632
Al      13.09770617      21.27027858       9.07006466       0.00161018       0.01504973      -0.01315049
Al      13.09755787      23.43632223      11.09256892       0.00155453       0.00887882      -0.03843364
Al      15.12961649      21.27179179      11.05089109      -0.00319048       0.01274462       0.01893841
Al      15.12802802      23.43842987       9.03033706      -0.00076499       0.01062327       0.04203545
Al      13.10000000      21.20000000      13.10000000       0.00119162       0.02428516      -0.51209929
Al      13.10000000      23.22500000      15.12500000       0.00117020       0.20745076       0.15456269
Al      15.12500000      21.20000000      15.12500000      -0.00319710      -0.31982744       0.61127629
Al      15.12500000      23.22500000      13.10000000       0.01039239       0.62603885      -0.24008660
Al      17.15000000       5.00000000       5.00000000       0.01183258      -0.20804186      -0.15490375
Al      17.15000000       7.02500000       7.02500000       0.00054817       0.02874871       0.53503293
Al      19.17500000       5.00000000       7.02500000       0.03611468      -0.59000182       0.22282689
Al      19.17500000       7.02500000       5.00000000       0.05009657       0.31493270      -0.61082671
Al      17.15897564       4.79404739       9.03307255       0.00397154      -0.01285520       0.04233634
Al      17.15436561       6.96371834      11.05357416       0.00320442      -0.01577839       0.01569849
Al      19.18245610       4.81449416      11.09858330       0.00458687      -0.01082586      -0.03776827
Al      19.16884616       6.99095000       9.06806803       0.00650669      -0.01644498      -0.01222040
Al      17.15000000       5.00000000      13.10000000       0.01125259      -0.61638644      -0.22686809
Al      17.15000000       7.02500000      15.12500000       0.01143606       0.31628460       0.61129458
Al      19.17500000       5.00000000      15.12500000       0.04469771      -0.20084634       0.15214127
Al      19.17500000       7.02500000      13.10000000       0.06193437       0.06793035      -0.54877155
Al      17.15000000       9.05000000       5.00000000       0.01069623      -0.04896878      -0.67208062
Al      17.15000000      11.07500000       7.02500000      -0.00267324       0.00267324       0.36139909
Al      19.17500000       9.05000000       7.02500000       0.10056162      -0.10056162       0.43100757
Al      19.17500000      11.07500000       5.00000000       0.04896878      -0.01069623      -0.67208062
Al      17.14405553       9.04043965       9.05464479       0.00266532      -0.00297394      -0.01728168
Al      17.12815000      11.09685000      11.07330001      -0.00258633       0.00258633       0.02765122
Al      19.16868336       9.05631664      11.07198992       0.00583211      -0.00583211       0.01956401
Al      19.18456035      11.08094447       9.05464479       0.00297394      -0.00266532      -0.01728168
Al      17.15000000       9.05000000      13.10000000       0.00553461      -0.11482553      -0.39751930
Al      17.15000000      11.07500000      15.12500000       0.00737836      -0.00737836       0.66809739
Al      19.17500000       9.05000000      15.12500000       0.04972932      -0.04972932       0.67175961
Al      19.17500000      11.07500000      13.10000000       0.11482553      -0.00553461      -0.39751930
Al      17.15000000      13.10000000       5.00000000       0.00910124       0.00195046      -0.66990273
Al      17.15000000      15.12500000       7.02500000      -0.06152082       0.00469511       0.40507596
Al      19.17500000      13.10000000       7.02500000       0.12276235       0.00220760       0.40210886
Al      19.17500000      15.12500000       5.00000000       0.04819121      -0.00184971      -0.67080666
Al      17.14150265      13.11223786       9.06083002      -0.01235095       0.00348436      -0.01853541
Al      17.17832204      15.12481194      11.07584546      -0.01080304      -0.00124842       0.02823864
Al      19.20446492      13.09732882      11.07113039      -0.00081323       0.00066900       0.02454742
Al      19.20293740      15.12540574       9.05058780       0.00091190      -0.00107626      -0.01992127
Al      17.15000000      13.10000000      13.10000000      -0.01143642       0.01538518      -0.35339752
Al      17.15000000      15.12500000      15.12500000       0.00399902      -0.00221971       0.66173767
Al      19.17500000      13.10000000      15.12500000       0.04571745       0.00268656       0.66889760
Al      19.17500000      15.12500000      13.10000000       0.18562722      -0.00199950      -0.34723441
Al      17.15000000      17.15000000       5.00000000       0.00951094       0.01031532      -0.67143553
Al      17.15000000      19.17500000       7.02500000      -0.01800408       0.10961208       0.41491964
Al      19.17500000      17.15000000       7.02500000       0.10933240       0.01363588       0.40518702
Al      19.17500000      19.17500000       5.00000000       0.04865978       0.04931050      -0.67273791
Al      17.13734281      17.14167518       9.06203528      -0.01150571      -0.00272665      -0.01706101
Al      17.12613436      19.16810113      11.07304673      -0.00313443       0.00296861       0.02434931
Al      19.19675110      17.15250574      11.07095788      -0.00189214      -0.00025815       0.02332215
Al      19.17121406      19.17256148       9.05434467      -0.00056361       0.00426320      -0.01514834
Al      17.15000000      17.15000000      13.10000000      -0.01937098       0.01369768      -0.36857917
Al      17.15000000      19.17500000      15.12500000       0.00759143       0.04641985       0.67136469
Al      19.17500000      17.15000000      15.12500000       0.04615353       0.00945487       0.66940419
Al      19.17500000      19.17500000      13.10000000       0.08578823       0.10396256      -0.43797279
Al      17.15000000      21.20000000       5.00000000       0.01021923      -0.31633537      -0.61287566
Al      17.15000000      23.22500000       7.02500000       0.01299902       0.60589022       0.23489956
Al      19.17500000      21.20000000       7.02500000       0.05672171      -0.07062421       0.54863013
Al      19.17500000      23.22500000       5.00000000       0.04380368       0.20147394      -0.15397751
Al      17.14878394      21.25301886       9.07137482      -0.00200444       0.01416858      -0.01123628
Al      17.16013039      23.43095977      11.09090581      -0.00068719       0.01122897      -0.03993032
Al      19.16317611      21.22774404      11.05742145       0.00037423       0.01569874       0.01608664
Al      19.18123333      23.40397674       9.02681244       0.00096898       0.01278192       0.03936791
Al      17.15000000      21.20000000      13.10000000      -0.00800078      -0.04587408      -0.54656760
Al      17.15000000      23.22500000      15.12500000       0.01108787       0.20705925       0.15504999
Al      19.17500000      21.20000000      15.12500000       0.04904797      -0.31576453       0.61109004
Al      19.17500000      23.22500000      13.10000000       0.03487365       0.58263595      -0.22803244
Al      21.20000000       5.00000000       5.00000000      -0.44814967      -0.09422914      -0.06474518
Al      21.20000000       7.02500000       7.02500000      -0.14536136       0.14536136       0.65790017
Al      23.22500000       5.00000000       7.02500000       0.04605554      -0.04605554       0.51736709
Al      23.22500000       7.02500000       5.00000000       0.09422914       0.44814967      -0.06474518
Al      21.17819553       4.87807349       9.04538532       0.00863426      -0.01186254       0.03775666
Al      21.19656479       7.02843521      11.04364118       0.01539512      -0.01539512       0.01163808
Al      23.24764350       4.97735650      11.07725568       0.00716746      -0.00716746      -0.07342825
Al      23.34692651       7.04680447       9.04538532       0.01186254      -0.00863426       0.03775666
Al      21.20000000       5.00000000      13.10000000      -0.24440599      -0.48095598      -0.36154630
Al      21.20000000       7.02500000      15.12500000      -0.31281309       0.31281309       0.55477570
Al      23.22500000       5.00000000      15.12500000      -0.33318211       0.33318211      -0.34494939
Al      23.22500000       7.02500000      13.10000000       0.48095598       0.24440599      -0.36154630
Al      21.20000000       9.05000000       5.00000000      -0.31493270      -0.05009657      -0.61082671
Al      21.20000000      11.07500000       7.02500000      -0.02874871      -0.00054817       0.53503293
Al      23.22500000       9.05000000       7.02500000       0.59000182      -0.03611468       0.22282689
Al      23.22500000      11.07500000       5.00000000       0.20804186      -0.01183258      -0.15490375
Al      21.23405000       9.05615384       9.06806803       0.01644498      -0.00650669      -0.01222040
Al      21.26128166      11.07063439      11.05357416       0.01577839      -0.00320442       0.01569849
Al      23.41050584       9.04254390      11.09858330       0.01082586      -0.00458687      -0.03776827
Al      23.43095261      11.06602436       9.03307255       0.01285520      -0.00397154       0.04233634
Al      21.20000000       9.05000000      13.10000000      -0.06793035      -0.06193437      -0.54877155
Al      21.20000000      11.07500000      15.12500000      -0.31628460      -0.01143606       0.61129458
Al      23.22500000       9.05000000      15.12500000       0.20084634      -0.04469771       0.15214127
Al      23.22500000      11.07500000      13.10000000       0.61638644      -0.01125259      -0.22686809
Al      21.20000000      13.10000000       5.00000000      -0.31688904       0.00170740      -0.61230809
Al      21.20000000      15.12500000       7.02500000       0.00224718      -0.00115958       0.52955306
Al      23.22500000      13.10000000       7.02500000       0.62666242      -0.01059821       0.23717633
Al      23.22500000      15.12500000       5.00000000       0.20922383      -0.00141054      -0.15459488
Al      21.26841060      13.09737947       9.07170861       0.01724454      -0.00140688      -0.01479919
Al      21.26722919      15.12724708      11.05197500       0.01553135      -0.00192081       0.01858595
Al      23.43578703      13.09827196      11.09336457       0.01175305      -0.00171425      -0.03887518
Al      23.43591704      15.12747127       9.03124369       0.01257149      -0.00181776       0.04121176
Al      21.20000000      13.10000000      13.10000000      -0.00255071       0.00200715      -0.53366079
Al      21.20000000      15.12500000      15.12500000      -0.31772325      -0.00191115       0.61193582
Al      23.22500000      13.10000000      15.12500000       0.20861248       0.00073339       0.15431596
Al      23.22500000      15.12500000      13.10000000       0.62204766       0.01165277      -0.24077393
Al      21.20000000      17.15000000       5.00000000      -0.31654431       0.01050497      -0.61186227
Al      21.20000000      19.17500000       7.02500000      -0.06705781       0.06368094       0.54660056
Al      23.22500000      17.15000000       7.02500000       0.61936703       0.01128279       0.22261611
Al      23.22500000      19.17500000       5.00000000       0.20213707       0.04413027      -0.15297517
Al      21.26161955      17.15507058       9.07007444       0.01549394       0.00001825      -0.01317209
Al      21.23899117      19.17256592      11.05666124       0.01387977       0.00321456       0.01603755
Al      23.42985205      17.15920035      11.09149475       0.01315336       0.00059721      -0.03960428
Al      23.41186413      19.18274727       9.02567673       0.01324167       0.00272671       0.03943031
Al      21.20000000      17.15000000      13.10000000      -0.01457848       0.00092893      -0.52204755