299
Lattice="28.224999999999998 0.0 0.0 0.0 28.224999999999998 0.0 0.0 0.0 20.125" Properties=species:S:1:pos:R:3:forces:R:3 energy=-16469.299799651755 pbc="T T T"
Al       5.00000000       5.00000000       5.00000000       0.32716239       0.32683077       0.33467341
Al       5.00000000       7.02500000       7.02500000      -0.49963299       0.24460554       0.36992820
Al       7.02500000       5.00000000       7.02500000       0.24039672      -0.49940689       0.36611859
Al       7.02500000       7.02500000       5.00000000       0.32359510       0.32353511      -0.58697619
Al       4.97747948       4.97789016       9.04695603      -0.01000359      -0.01007477       0.05901391
Al       4.88269995       7.04880556      11.08199188      -0.00444290      -0.00347249      -0.04332725
Al       7.04654120       4.87429380      11.08248574      -0.00333245      -0.00485297      -0.04352225
Al       7.02847194       7.02749193       9.07912336      -0.00798708      -0.00800421       0.03514010
Al       5.00000000       5.00000000      13.10000000      -0.05286646      -0.04852037      -0.52049220
Al       5.00000000       7.02500000      15.12500000      -0.09474472       0.45322121       0.08368170
Al       7.02500000       5.00000000      15.12500000       0.45345346      -0.09564142       0.08250065
Al       7.02500000       7.02500000      13.10000000       0.14604457       0.14823348      -0.65895978
Al       5.00000000       9.05000000       5.00000000      -0.19853662      -0.03756573      -0.17418069
Al       5.00000000      11.07500000       7.02500000      -0.62069481      -0.00798776       0.23481161
Al       7.02500000       9.05000000       7.02500000       0.07164567      -0.04971592       0.54244949
Al       7.02500000      11.07500000       5.00000000       0.33022918      -0.00591527      -0.64648083
Al       4.82100946       9.04421598       9.02450637      -0.00565982       0.00034505       0.04811981
Al       4.79430170      11.06515971      11.09322259      -0.00533466       0.00315490      -0.04479961
Al       6.99737344       9.06248075      11.06031393      -0.00670059      -0.00040111      -0.03053635
Al       6.97196998      11.07645480       9.06868216      -0.00322909       0.00543767       0.03431600
Al       5.00000000       9.05000000      13.10000000      -0.59738757      -0.02775261      -0.22726084
Al       5.00000000      11.07500000      15.12500000      -0.20238051      -0.00688381       0.17512975
Al       7.02500000       9.05000000      15.12500000       0.32925103      -0.04063539       0.64321069
Al       7.02500000      11.07500000      13.10000000       0.04589399       0.01261942      -0.53714406
Al       5.00000000      13.10000000       5.00000000      -0.20419248       0.00324864      -0.17491624
Al       5.00000000      15.12500000       7.02500000      -0.64642616       0.01073269       0.23280098
Al       7.02500000      13.10000000       7.02500000       0.03812530       0.00476373       0.55788821
Al       7.02500000      15.12500000       5.00000000       0.33000919      -0.00297270      -0.64671913
Al       4.78716050      13.09710990       9.02829720      -0.00636139       0.00171024       0.04653008
Al       4.78940944      15.12740699      11.09483531      -0.00556977      -0.00186332      -0.04230178
Al       6.95338892      13.09563745      11.05373076      -0.00427285       0.00199822      -0.02459746
Al       6.95490308      15.12726408       9.06759898      -0.00491916      -0.00104094       0.02983540
Al       5.00000000      13.10000000      13.10000000      -0.64059326      -0.00870216      -0.23870827
Al       5.00000000      15.12500000      15.12500000      -0.20319365      -0.00252450       0.17459453
Al       7.02500000      13.10000000      15.12500000       0.33098668       0.00352417       0.64445458
Al       7.02500000      15.12500000      13.10000000      -0.02694670      -0.00267074      -0.50229750
Al       5.00000000      17.15000000       5.00000000      -0.20336472       0.00736260      -0.17527106
Al       5.00000000      19.17500000       7.02500000      -0.59834010       0.03028432       0.22312929
Al       7.02500000      17.15000000       7.02500000       0.05004915      -0.00356535       0.54558638
Al       7.02500000      19.17500000       5.00000000       0.32836814       0.04153093      -0.64408681
Al       4.79317299      17.16033214       9.03013936      -0.00691801      -0.00266711       0.04872270
Al       4.81346922      19.18356047      11.10073674      -0.00480419      -0.00040037      -0.04470587
Al       6.96031467      17.15682528      11.05572272      -0.00253732      -0.00465752      -0.02863744
Al       6.99517800      19.16637362       9.06583867      -0.00589688       0.00082436       0.03598627
Al       5.00000000      17.15000000      13.10000000      -0.63417130       0.00797007      -0.22464808
Al       5.00000000      19.17500000      15.12500000      -0.19779817       0.03812440       0.17209123
Al       7.02500000      17.15000000      15.12500000       0.33045842       0.00634845       0.64368659
Al       7.02500000      19.17500000      13.10000000       0.08414821       0.05073337      -0.55159545
Al       5.00000000      21.20000000       5.00000000      -0.09517390      -0.45289240      -0.08330573
Al       5.00000000      23.22500000       7.02500000      -0.05031062       0.05031062       0.52371773
Al       7.02500000      21.20000000       7.02500000       0.15223903      -0.15223903       0.65564117
Al       7.02500000      23.22500000       5.00000000       0.45289240       0.09517390      -0.08330573
Al       4.88169668      21.17606651       9.04230386      -0.00498347       0.00319421       0.04670384
Al       4.98143047      23.24356953      11.07649562      -0.00952691       0.00952691      -0.05663227
Al       7.03455485      21.19044515      11.04697469      -0.00746797       0.00746797      -0.03059172
Al       7.04893349      23.34330332       9.04230386      -0.00319421       0.00498347       0.04670384
Al       5.00000000      21.20000000      13.10000000      -0.49057363      -0.24362755      -0.36841450
Al       5.00000000      23.22500000      15.12500000       0.32871397      -0.32871397      -0.33464349
Al       7.02500000      21.20000000      15.12500000       0.32374995      -0.32374995       0.58561473
Al       7.02500000      23.22500000      13.10000000       0.24362755       0.49057363      -0.36841450
Al       9.05000000       5.00000000       5.00000000      -0.03756135      -0.19938982      -0.17302196
Al       9.05000000       7.02500000       7.02500000      -0.05770070       0.06868101       0.54104393
Al      11.07500000       5.00000000       7.02500000      -0.00686265      -0.63408583       0.22342284
Al      11.07500000       7.02500000       5.00000000      -0.00553776       0.33036115      -0.64517441
Al       9.04227954       4.81357469       9.02344437      -0.00032221      -0.00609527       0.04817880
Al       9.05258221       6.98663902      11.05955978      -0.00120164      -0.00725425      -0.03124007
Al      11.06579707       4.79553588      11.09371354       0.00288807      -0.00577021      -0.04499390
Al      11.06978542       6.96361131       9.06723381       0.00453415      -0.00504768       0.03486612
Al       9.05000000       5.00000000      13.10000000      -0.02914861      -0.60947046      -0.21648141
Al       9.05000000       7.02500000      15.12500000      -0.04008728       0.32911243       0.64234786
Al      11.07500000       5.00000000      15.12500000      -0.00660074      -0.20226291       0.17483067
Al      11.07500000       7.02500000      13.10000000       0.00448937       0.01514998      -0.51318983
Al       9.05000000       9.05000000       5.00000000      -0.03981863      -0.03974823      -0.70816019
Al       9.05000000      11.07500000       7.02500000      -0.10446567       0.02243742       0.40114736
Al      11.07500000       9.05000000       7.02500000      -0.00999337      -0.10348352       0.39161081
Al      11.07500000      11.07500000       5.00000000      -0.00626150      -0.00640232      -0.71042040
Al       9.05228016       9.05413886       9.05157217       0.00165702       0.00367673       0.03675664
Al       9.05675582      11.09918443      11.07616170       0.00221532       0.00438580      -0.02866568
Al      11.07228412       9.02853781      11.07406691       0.00496645       0.00483576      -0.03054202
Al      11.08296640      11.08784976       9.05936300       0.00964476       0.01273729       0.03447551
Al       9.05000000       9.05000000      13.10000000      -0.09848037      -0.07951500      -0.42360411
Al       9.05000000      11.07500000      15.12500000      -0.03947317      -0.00619753       0.70762074
Al      11.07500000       9.05000000      15.12500000      -0.00532166      -0.03997977       0.70543914
Al      11.07500000      11.07500000      13.10000000      -0.01103172       0.02209245      -0.35403135
Al       9.05000000      13.10000000       5.00000000      -0.04028536       0.00273351      -0.71176989
Al       9.05000000      15.12500000       7.02500000      -0.05325727      -0.00101107       0.45301575
Al      11.07500000      13.10000000       7.02500000       0.01020639       0.04468930       0.34048217
Al      11.07500000      15.12500000       5.00000000      -0.00412090      -0.00323355      -0.71164857
Al       9.04046724      13.11160001       9.05863430       0.00589118       0.00121550       0.03255384
Al       9.00459758      15.12536691      11.07750762       0.00547517       0.00123344      -0.02546469
Al      11.13966844      13.17464939      11.09316859       0.00979237      -0.00301866      -0.01806286
Al      11.10702421      15.12590709       9.08263484       0.02470742      -0.00005780       0.03750639
Al       9.05000000      13.10000000      13.10000000      -0.10297472       0.02109117      -0.40400055
Al       9.05000000      15.12500000      15.12500000      -0.03829109      -0.00304509       0.70372414
Al      11.07500000      13.10000000      15.12500000      -0.01367976      -0.00541295       0.72261508
Al      11.07500000      15.12500000      13.10000000       0.37290787       0.00615409      -0.46355691
Al       9.05000000      17.15000000       5.00000000      -0.04068746       0.00706935      -0.71155697
Al       9.05000000      19.17500000       7.02500000      -0.07476598       0.07476598       0.43992017
Al      11.07500000      17.15000000       7.02500000       0.01696328      -0.01696328       0.34989239
Al      11.07500000      19.17500000       5.00000000      -0.00706935       0.04068746      -0.71155697
Al       9.04815260      17.13930640       9.05888035       0.00751061      -0.00550741       0.03569454
Al       9.07093734      19.15406266      11.07643705       0.00202762      -0.00202762      -0.02951616
Al      11.14497293      17.08002707      11.09216897       0.00366586      -0.00366586      -0.01862375
Al      11.08569360      19.17684740       9.05888035       0.00550741      -0.00751061       0.03569454
Al       9.05000000      17.15000000      13.10000000      -0.08919776      -0.00725596      -0.40782336
Al       9.05000000      19.17500000      15.12500000      -0.04020712       0.04020712       0.70682260
Al      11.07500000      17.15000000      15.12500000      -0.01460785       0.01460785       0.72364632
Al      11.07500000      19.17500000      13.10000000       0.00725596       0.08919776      -0.40782336
Al       9.05000000      21.20000000       5.00000000      -0.04153093      -0.32836814      -0.64408681
Al       9.05000000      23.22500000       7.02500000      -0.03028432       0.59834010       0.22312929
Al      11.07500000      21.20000000       7.02500000       0.00356535      -0.05004915       0.54558638
Al      11.07500000      23.22500000       5.00000000      -0.00736260       0.20336472      -0.17527106
Al       9.05862638      21.22982200       9.06583867      -0.00082436       0.00589688       0.03598627
Al       9.04143953      23.41153078      11.10073674       0.00040037       0.00480419      -0.04470587
Al      11.06817472      21.26468533      11.05572272       0.00465752       0.00253732      -0.02863744
Al      11.06466786      23.43182701       9.03013936       0.00266711       0.00691801       0.04872270
Al       9.05000000      21.20000000      13.10000000      -0.05073337      -0.08414821      -0.55159545
Al       9.05000000      23.22500000      15.12500000      -0.03812440       0.19779817       0.17209123
Al      11.07500000      21.20000000      15.12500000      -0.00634845      -0.33045842       0.64368659
Al      11.07500000      23.22500000      13.10000000      -0.00797007       0.63417130      -0.22464808
Al      13.10000000       5.00000000       5.00000000       0.00284312      -0.20406353      -0.17483667
Al      13.10000000       7.02500000       7.02500000       0.00307378      -0.00204574       0.52195104
Al      15.12500000       5.00000000       7.02500000       0.00873461      -0.64046730       0.23762822
Al      15.12500000       7.02500000       5.00000000      -0.00366693       0.33092677      -0.64543691
Al      13.09761695       4.78957938       9.02912216       0.00237505      -0.00583627       0.04659883
Al      13.09779017       6.95796543      11.05476661       0.00244701      -0.00640503      -0.02615133
Al      15.12686458       4.78963180      11.09550726      -0.00051741      -0.00439461      -0.04296031
Al      15.12774834       6.95662256       9.06903290      -0.00013532      -0.00648961       0.03143556
Al      13.10000000       5.00000000      13.10000000      -0.00973748      -0.63514103      -0.24067923
Al      13.10000000       7.02500000      15.12500000       0.00382752       0.33117871       0.64432554
Al      15.12500000       5.00000000      15.12500000      -0.00293336      -0.20252090       0.17410248
Al      15.12500000       7.02500000      13.10000000      -0.00333683       0.00296891      -0.52490550
Al      13.10000000       9.05000000       5.00000000       0.00339912      -0.04013941      -0.70803299
Al      13.10000000      11.07500000       7.02500000      -0.00373015       0.06529588       0.39184418
Al      15.12500000       9.05000000       7.02500000      -0.00287151      -0.11775818       0.38838539
Al      15.12500000      11.07500000       5.00000000      -0.00266323      -0.00603800      -0.70923089
Al      13.09964879       9.02214709       9.04786242       0.00033073       0.00355926       0.03287590
Al      13.10012842      11.04660673      11.07894165       0.00158257       0.01749139      -0.02654751
Al      15.12754053       9.02064520      11.07408709       0.00152629       0.00335741      -0.02765695
Al      15.11250446      11.08330970       9.05821530      -0.00143811       0.01821340       0.03338956
Al      13.10000000       9.05000000      13.10000000       0.00363555      -0.18416777      -0.33120432
Al      13.10000000      11.07500000      15.12500000       0.00404999      -0.00445643       0.70087743
Al      15.12500000       9.05000000      15.12500000      -0.00288608      -0.03965669       0.70497873
Al      15.12500000      11.07500000      13.10000000      -0.01513546       0.01402847      -0.33947090
Al      13.10000000      13.10000000       5.00000000       0.00374139       0.00491036      -0.71026911
Al      13.10000000      15.12500000       7.02500000      -0.00603453       0.00603453       0.05131862
Al      15.12500000      13.10000000       7.02500000      -0.04461937       0.04461937       0.32971897
Al      15.12500000      15.12500000       5.00000000      -0.00491036      -0.00374139      -0.71026911
Al      13.09768329      13.14209140       9.08364359       0.00431842       0.01503728       0.03643064
Al      15.05017408      13.17482592      11.09380088       0.00109997      -0.00109997      -0.01727571
Al      15.08290860      15.12731671       9.08364359      -0.01503728      -0.00431842       0.03643064
Al      13.10000000      13.10000000      13.10000000      -0.01242241       0.39757651      -0.44562700
Al      13.10000000      15.12500000      15.12500000       0.00408214      -0.00408214       0.85996394
Al      15.12500000      13.10000000      15.12500000       0.00541385      -0.00541385       0.72031191
Al      15.12500000      15.12500000      13.10000000      -0.39757651       0.01242241      -0.44562700
Al      13.10000000      17.15000000       5.00000000       0.00323355       0.00412090      -0.71164857
Al      13.10000000      19.17500000       7.02500000       0.00101107       0.05325727       0.45301575
Al      15.12500000      17.15000000       7.02500000      -0.04468930      -0.01020639       0.34048217
Al      15.12500000      19.17500000       5.00000000      -0.00273351       0.04028536      -0.71176989
Al      13.09909291      17.11797579       9.08263484       0.00005780      -0.02470742       0.03750639
Al      13.09963309      19.22040242      11.07750762      -0.00123344      -0.00547517      -0.02546469
Al      15.05035061      17.08533156      11.09316859       0.00301866      -0.00979237      -0.01806286
Al      15.11339999      19.18453276       9.05863430      -0.00121550      -0.00589118       0.03255384
Al      13.10000000      17.15000000      13.10000000      -0.00615409      -0.37290787      -0.46355691
Al      13.10000000      19.17500000      15.12500000       0.00304509       0.03829109       0.70372414
Al      15.12500000      17.15000000      15.12500000       0.00541295       0.01367976       0.72261508
Al      15.12500000      19.17500000      13.10000000      -0.02109117       0.10297472      -0.40400055
Al      13.10000000      21.20000000       5.00000000       0.00297270      -0.33000919      -0.64671913
Al      13.10000000      23.22500000       7.02500000      -0.01073269       0.64642616       0.23280098
Al      15.12500000      21.20000000       7.02500000      -0.00476373      -0.03812530       0.55788821
Al      15.12500000      23.22500000       5.00000000      -0.00324864       0.20419248      -0.17491624
Al      13.09773592      21.27009692       9.06759898       0.00104094       0.00491916       0.02983540
Al      13.09759301      23.43559056      11.09483531       0.00186332       0.00556977      -0.04230178
Al      15.12936255      21.27161108      11.05373076      -0.00199822       0.00427285      -0.02459746
Al      15.12789010      23.43783950       9.02829720      -0.00171024       0.00636139       0.04653008
Al      13.10000000      21.20000000      13.10000000       0.00267074       0.02694670      -0.50229750
Al      13.10000000      23.22500000      15.12500000       0.00252450       0.20319365       0.17459453
Al      15.12500000      21.20000000      15.12500000      -0.00352417      -0.33098668       0.64445458
Al      15.12500000      23.22500000      13.10000000       0.00870216       0.64059326      -0.23870827
Al      17.15000000       5.00000000       5.00000000       0.00655084      -0.20358269      -0.17539576
Al      17.15000000       7.02500000       7.02500000      -0.00505551       0.03023517       0.52734343
Al      19.17500000       5.00000000       7.02500000       0.02927245      -0.60524406       0.22283845
Al      19.17500000       7.02500000       5.00000000       0.04015951       0.32898375      -0.64367083
Al      17.15915664       4.79428668       9.03082698      -0.00130994      -0.00526511       0.04857326
Al      17.15461838       6.96374857      11.05643790      -0.00326968      -0.00401275      -0.02994093
Al      19.18247130       4.81464766      11.10084962       0.00060261      -0.00333835      -0.04527788
Al      19.16875976       6.99113223       9.06525255       0.00208639      -0.00676632       0.03527657
Al      17.15000000       5.00000000      13.10000000       0.00584787      -0.63014070      -0.22656182
Al      17.15000000       7.02500000      15.12500000       0.00545736       0.33146802       0.64368477
Al      19.17500000       5.00000000      15.12500000       0.03695766      -0.19770444       0.17247609
Al      19.17500000       7.02500000      13.10000000       0.05385964       0.07068299      -0.54184537
Al      17.15000000       9.05000000       5.00000000       0.00589225      -0.03950749      -0.70818895
Al      17.15000000      11.07500000       7.02500000      -0.00622205       0.00622205       0.34775418
Al      19.17500000       9.05000000       7.02500000       0.09315189      -0.09315189       0.41786858
Al      19.17500000      11.07500000       5.00000000       0.03950749      -0.00589225      -0.70818895
Al      17.14426558       9.04033160       9.05176916      -0.00350262       0.00361959       0.03647975
Al      17.12825458      11.09674542      11.07644981      -0.00685067       0.00685067      -0.02805723
Al      19.16874581       9.05625419      11.07489292      -0.00084950       0.00084950      -0.03114440
Al      19.18466840      11.08073442       9.05176916      -0.00361959       0.00350262       0.03647975
Al      17.15000000       9.05000000      13.10000000       0.00225721      -0.10973528      -0.38230124
Al      17.15000000      11.07500000      15.12500000       0.00608333      -0.00608333       0.70539908
Al      19.17500000       9.05000000      15.12500000       0.03907881      -0.03907881       0.70585836
Al      19.17500000      11.07500000      13.10000000       0.10973528      -0.00225721      -0.38230124
Al      17.15000000      13.10000000       5.00000000       0.00603800       0.00266323      -0.70923089
Al      17.15000000      15.12500000       7.02500000      -0.06529588       0.00373015       0.39184418
Al      19.17500000      13.10000000       7.02500000       0.11775818       0.00287151       0.38838539
Al      19.17500000      15.12500000       5.00000000       0.04013941      -0.00339912      -0.70803299
Al      17.14169030      13.11249554       9.05821530      -0.01821340       0.00143811       0.03338956
Al      17.17839327      15.12487158      11.07894165      -0.01749139      -0.00158257      -0.02654751
Al      19.20435480      13.09745947      11.07408709      -0.00335741      -0.00152629      -0.02765695
Al      19.20285291      15.12535121       9.04786242      -0.00355926      -0.00033073       0.03287590
Al      17.15000000      13.10000000      13.10000000      -0.01402847       0.01513546      -0.33947090
Al      17.15000000      15.12500000      15.12500000       0.00445643      -0.00404999       0.70087743
Al      19.17500000      13.10000000      15.12500000       0.03965669       0.00288608       0.70497873
Al      19.17500000      15.12500000      13.10000000       0.18416777      -0.00363555      -0.33120432
Al      17.15000000      17.15000000       5.00000000       0.00640232       0.00626150      -0.71042040
Al      17.15000000      19.17500000       7.02500000      -0.02243742       0.10446567       0.40114736
Al      19.17500000      17.15000000       7.02500000       0.10348352       0.00999337       0.39161081
Al      19.17500000      19.17500000       5.00000000       0.03974823       0.03981863      -0.70816019
Al      17.13715024      17.14203360       9.05936300      -0.01273729      -0.00964476       0.03447551
Al      17.12581557      19.16824418      11.07616170      -0.00438580      -0.00221532      -0.02866568
Al      19.19646219      17.15271588      11.07406691      -0.00483576      -0.00496645      -0.03054202
Al      19.17086114      19.17271984       9.05157217      -0.00367673      -0.00165702       0.03675664
Al      17.15000000      17.15000000      13.10000000      -0.02209245       0.01103172      -0.35403135
Al      17.15000000      19.17500000      15.12500000       0.00619753       0.03947317       0.70762074
Al      19.17500000      17.15000000      15.12500000       0.03997977       0.00532166       0.70543914
Al      19.17500000      19.17500000      13.10000000       0.07951500       0.09848037      -0.42360411
Al      17.15000000      21.20000000       5.00000000       0.00591527      -0.33022918      -0.64648083
Al      17.15000000      23.22500000       7.02500000       0.00798776       0.62069481       0.23481161
Al      19.17500000      21.20000000       7.02500000       0.04971592      -0.07164567       0.54244949
Al      19.17500000      23.22500000       5.00000000       0.03756573       0.19853662      -0.17418069
Al      17.14854520      21.25303002       9.06868216      -0.00543767       0.00322909       0.03431600
Al      17.15984029      23.43069830      11.09322259      -0.00315490       0.00533466      -0.04479961
Al      19.16251925      21.22762656      11.06031393       0.00040111       0.00670059      -0.03053635
Al      19.18078402      23.40399054       9.02450637      -0.00034505       0.00565982       0.04811981
Al      17.15000000      21.20000000      13.10000000      -0.01261942      -0.04589399      -0.53714406
Al      17.15000000      23.22500000      15.12500000       0.00688381       0.20238051       0.17512975
Al      19.17500000      21.20000000      15.12500000       0.04063539      -0.32925103       0.64321069
Al      19.17500000      23.22500000      13.10000000       0.02775261       0.59738757      -0.22726084
Al      21.20000000       5.00000000       5.00000000      -0.45287149      -0.09657904      -0.08369176
Al      21.20000000       7.02500000       7.02500000      -0.14542031       0.14542031       0.65790759
Al      23.22500000       5.00000000       7.02500000       0.05217666      -0.05217666       0.51937756
Al      23.22500000       7.02500000       5.00000000       0.09657904       0.45287149      -0.08369176
Al      21.17778931       4.87816283       9.04266453       0.00361889      -0.00417049       0.04586313
Al      21.19630630       7.02869370      11.04616914       0.00708830      -0.00708830      -0.03084326
Al      23.24717782       4.97782218      11.07820092       0.00859723      -0.00859723      -0.05730649
Al      23.34683717       7.04721069       9.04266453       0.00417049      -0.00361889       0.04586313
Al      21.20000000       5.00000000      13.10000000      -0.24326456      -0.49720886      -0.36662702
Al      21.20000000       7.02500000      15.12500000      -0.32465865       0.32465865       0.58590870
Al      23.22500000       5.00000000      15.12500000      -0.32787870       0.32787870      -0.33519596
Al      23.22500000       7.02500000      13.10000000       0.49720886       0.24326456      -0.36662702
Al      21.20000000       9.05000000       5.00000000      -0.32898375      -0.04015951      -0.64367083
Al      21.20000000      11.07500000       7.02500000      -0.03023517       0.00505551       0.52734343
Al      23.22500000       9.05000000       7.02500000       0.60524406      -0.02927245       0.22283845
Al      23.22500000      11.07500000       5.00000000       0.20358269      -0.00655084      -0.17539576
Al      21.23386777       9.05624024       9.06525255       0.00676632      -0.00208639       0.03527657
Al      21.26125143      11.07038162      11.05643790       0.00401275       0.00326968      -0.02994093
Al      23.41035234       9.04252870      11.10084962       0.00333835      -0.00060261      -0.04527788
Al      23.43071332      11.06584336       9.03082698       0.00526511       0.00130994       0.04857326
Al      21.20000000       9.05000000      13.10000000      -0.07068299      -0.05385964      -0.54184537
Al      21.20000000      11.07500000      15.12500000      -0.33146802      -0.00545736       0.64368477
Al      23.22500000       9.05000000      15.12500000       0.19770444      -0.03695766       0.17247609
Al      23.22500000      11.07500000      13.10000000       0.63014070      -0.00584787      -0.22656182
Al      21.20000000      13.10000000       5.00000000      -0.33092677       0.00366693      -0.64543691
Al      21.20000000      15.12500000       7.02500000       0.00204574      -0.00307378       0.52195104
Al      23.22500000      13.10000000       7.02500000       0.64046730      -0.00873461       0.23762822
Al      23.22500000      15.12500000       5.00000000       0.20406353      -0.00284312      -0.17483667
Al      21.26837744      13.09725166       9.06903290       0.00648961       0.00013532       0.03143556
Al      21.26703457      15.12720983      11.05476661       0.00640503      -0.00244701      -0.02615133
Al      23.43536820      13.09813542      11.09550726       0.00439461       0.00051741      -0.04296031
Al      23.43542062      15.12738305       9.02912216       0.00583627      -0.00237505       0.04659883
Al      21.20000000      13.10000000      13.10000000      -0.00296891       0.00333683      -0.52490550
Al      21.20000000      15.12500000      15.12500000      -0.33117871      -0.00382752       0.64432554
Al      23.22500000      13.10000000      15.12500000       0.20252090       0.00293336       0.17410248
Al      23.22500000      15.12500000      13.10000000       0.63514103       0.00973748      -0.24067923
Al      21.20000000      17.15000000       5.00000000      -0.33036115       0.00553776      -0.64517441
Al      21.20000000      19.17500000       7.02500000      -0.06868101       0.05770070       0.54104393
Al      23.22500000      17.15000000       7.02500000       0.63408583       0.00686265       0.22342284
Al      23.22500000      19.17500000       5.00000000       0.19938982       0.03756135      -0.17302196
Al      21.26138869      17.15521458       9.06723381       0.00504768      -0.00453415       0.03486612
Al      21.23836098      19.17241779      11.05955978       0.00725425       0.00120164      -0.03124007
Al      23.42946412      17.15920293      11.09371354       0.00577021      -0.00288807      -0.04499390
Al      23.41142531      19.18272046       9.02344437       0.00609527       0.00032221       0.04817880
Al      21.20000000      17.15000000      13.10000000      -0.01514998      -0.00448937      -0.51318983