299
Lattice="28.224999999999998 0.0 0.0 0.0 28.224999999999998 0.0 0.0 0.0 20.125" Properties=species:S:1:pos:R:3:forces:R:3 energy=-16469.30047060176 pbc="T T T"
Al       5.00000000       5.00000000       5.00000000       0.32869608       0.32894371       0.33463631
Al       5.00000000       7.02500000       7.02500000      -0.49294526       0.24911832       0.38709844
Al       7.02500000       5.00000000       7.02500000       0.24507539      -0.49277676       0.38216861
Al       7.02500000       7.02500000       5.00000000       0.32308559       0.32375621      -0.58416745
Al       4.97783918       4.97768723       9.04983455      -0.01535891      -0.01416421       0.02181392
Al       4.88334379       7.04826974      11.07772746      -0.00815976      -0.00097883       0.00818514
Al       7.04646333       4.87431016      11.07838205      -0.00344649      -0.00736009       0.00699072
Al       7.02847600       7.02706525       9.08425647      -0.01063923      -0.00781170      -0.04104574
Al       5.00000000       5.00000000      13.10000000      -0.04780374      -0.04300072      -0.53315598
Al       5.00000000       7.02500000      15.12500000      -0.09099046       0.45424670       0.08435359
Al       7.02500000       5.00000000      15.12500000       0.45311470      -0.09138831       0.08359195
Al       7.02500000       7.02500000      13.10000000       0.15098201       0.15424972      -0.67842289
Al       5.00000000       9.05000000       5.00000000      -0.19486913      -0.04173002      -0.17246420
Al       5.00000000      11.07500000       7.02500000      -0.61617952      -0.01441604       0.26049999
Al       7.02500000       9.05000000       7.02500000       0.07505161      -0.05498769       0.56933846
Al       7.02500000      11.07500000       5.00000000       0.32185410      -0.01573846      -0.64268697
Al       4.82125076       9.04386291       9.02879775      -0.00333766       0.00383830      -0.00525186
Al       4.79434872      11.06504122      11.08941818      -0.00323631       0.00160130       0.00100631
Al       6.99731598       9.06196228      11.05505285      -0.01197936       0.00327450       0.04504999
Al       6.97185068      11.07642990       9.07394958      -0.01170750      -0.00058506      -0.03923465
Al       5.00000000       9.05000000      13.10000000      -0.59156878      -0.03066304      -0.25117694
Al       5.00000000      11.07500000      15.12500000      -0.20231245      -0.01132586       0.17386361
Al       7.02500000       9.05000000      15.12500000       0.32549856      -0.04676821       0.63966771
Al       7.02500000      11.07500000      13.10000000       0.04495820       0.00366492      -0.56698411
Al       5.00000000      13.10000000       5.00000000      -0.20735263       0.00011295      -0.17400770
Al       5.00000000      15.12500000       7.02500000      -0.64524027       0.01126271       0.25821619
Al       7.02500000      13.10000000       7.02500000       0.03420115      -0.00077958       0.58956619
Al       7.02500000      15.12500000       5.00000000       0.31891598       0.00009733      -0.64453825
Al       4.78690267      13.09699206       9.03212084      -0.00453518      -0.00019720       0.00145175
Al       4.78903705      15.12708608      11.09124683      -0.00343927      -0.00058879       0.00149520
Al       6.95296769      13.09545442      11.04901524      -0.01371454      -0.00005191       0.04134357
Al       6.95445979      15.12687778       9.07252408      -0.01448766       0.00127775      -0.03848054
Al       5.00000000      13.10000000      13.10000000      -0.63927187      -0.01201576      -0.26286441
Al       5.00000000      15.12500000      15.12500000      -0.20587662      -0.00099072       0.17383276
Al       7.02500000      13.10000000      15.12500000       0.31932223      -0.00075698       0.64236087
Al       7.02500000      15.12500000      13.10000000      -0.03166380      -0.00020429      -0.53292242
Al       5.00000000      17.15000000       5.00000000      -0.20414192       0.01152088      -0.17431074
Al       5.00000000      19.17500000       7.02500000      -0.59320486       0.03225059       0.24682055
Al       7.02500000      17.15000000       7.02500000       0.04916619       0.00325603       0.57671586
Al       7.02500000      19.17500000       5.00000000       0.32487758       0.04821957      -0.64071948
Al       4.79283462      17.16008160       9.03410589      -0.00360076      -0.00103051       0.00202268
Al       4.81325642      19.18378317      11.09676108      -0.00200152      -0.00503823       0.00559496
Al       6.95997576      17.15653446      11.05067415      -0.01121712      -0.00099989       0.04145059
Al       6.99477567      19.16663937       9.07125110      -0.00944453      -0.00181295      -0.04053676
Al       5.00000000      17.15000000      13.10000000      -0.63061314       0.01112348      -0.24902924
Al       5.00000000      19.17500000      15.12500000      -0.19496705       0.04086586       0.17166854
Al       7.02500000      17.15000000      15.12500000       0.32211440       0.01424431       0.64084409
Al       7.02500000      19.17500000      13.10000000       0.08676753       0.05410619      -0.57712315
Al       5.00000000      21.20000000       5.00000000      -0.09166038      -0.45330639      -0.08414953
Al       5.00000000      23.22500000       7.02500000      -0.04487048       0.04487048       0.53549627
Al       7.02500000      21.20000000       7.02500000       0.15711262      -0.15711262       0.67605337
Al       7.02500000      23.22500000       5.00000000       0.45330639       0.09166038      -0.08414953
Al       4.88164097      21.17645169       9.04666498      -0.00618652       0.00166342      -0.00677546
Al       4.98136001      23.24363999      11.07376335      -0.01457152       0.01457152      -0.02058740
Al       7.03408155      21.19091845      11.04206396      -0.00780766       0.00780766       0.04115405
Al       7.04854831      23.34335903       9.04666498      -0.00166342       0.00618652      -0.00677546
Al       5.00000000      21.20000000      13.10000000      -0.48628593      -0.24786102      -0.38423237
Al       5.00000000      23.22500000      15.12500000       0.32942149      -0.32942149      -0.33354369
Al       7.02500000      21.20000000      15.12500000       0.32412429      -0.32412429       0.58459424
Al       7.02500000      23.22500000      13.10000000       0.24786102       0.48628593      -0.38423237
Al       9.05000000       5.00000000       5.00000000      -0.04191098      -0.19537494      -0.17204046
Al       9.05000000       7.02500000       7.02500000      -0.06222704       0.07262560       0.56747816
Al      11.07500000       5.00000000       7.02500000      -0.01132615      -0.62955825       0.24826412
Al      11.07500000       7.02500000       5.00000000      -0.01482805       0.32252774      -0.64211171
Al       9.04230560       4.81345718       9.02764704       0.00180685      -0.00374691      -0.00493679
Al       9.05241560       6.98626215      11.05429704       0.00084706      -0.00929725       0.04363939
Al      11.06617669       4.79550153      11.09002544      -0.00069203      -0.00492516      -0.00083695
Al      11.07027506       6.96337330       9.07261239      -0.00202149      -0.01173719      -0.04042311
Al       9.05000000       5.00000000      13.10000000      -0.03224303      -0.60419220      -0.23953427
Al       9.05000000       7.02500000      15.12500000      -0.04812034       0.32685255       0.63958927
Al      11.07500000       5.00000000      15.12500000      -0.01205943      -0.20297540       0.17519741
Al      11.07500000       7.02500000      13.10000000      -0.00443898       0.01640010      -0.54362365
Al       9.05000000       9.05000000       5.00000000      -0.05290755      -0.05251474      -0.70290313
Al       9.05000000      11.07500000       7.02500000      -0.11836552       0.00833796       0.44095192
Al      11.07500000       9.05000000       7.02500000      -0.02210178      -0.11791130       0.43147328
Al      11.07500000      11.07500000       5.00000000      -0.02314104      -0.02326537      -0.71060619
Al       9.05224757       9.05377870       9.05722003      -0.00272374       0.00131112      -0.04557573
Al       9.05652727      11.09895355      11.07074514      -0.00705606      -0.00432195       0.04717202
Al      11.07260195       9.02809089      11.06869284      -0.00493841      -0.00260922       0.04433596
Al      11.08331781      11.08759496       9.06475602      -0.00771693       0.00057146      -0.03892289
Al       9.05000000       9.05000000      13.10000000      -0.10763786      -0.08789762      -0.45779770
Al       9.05000000      11.07500000      15.12500000      -0.05802860      -0.01931693       0.70515202
Al      11.07500000       9.05000000      15.12500000      -0.01948791      -0.05636387       0.70343224
Al      11.07500000      11.07500000      13.10000000      -0.03048206       0.00216058      -0.39847452
Al       9.05000000      13.10000000       5.00000000      -0.06015939      -0.00338610      -0.71040239
Al       9.05000000      15.12500000       7.02500000      -0.07158160       0.00315101       0.49322464
Al      11.07500000      13.10000000       7.02500000      -0.01075627       0.03542459       0.38608948
Al      11.07500000      15.12500000       5.00000000      -0.02244803       0.00353984      -0.71416281
Al       9.03999237      13.11125689       9.06386515      -0.00164137      -0.00198939      -0.03933810
Al       9.00416923      15.12512116      11.07235498      -0.00478112       0.00360828       0.04420719
Al      11.14030502      13.17444837      11.08785794      -0.01675167      -0.01070079       0.05302248
Al      11.10672190      15.12563285       9.08737822       0.02467962       0.00502843      -0.02426804
Al       9.05000000      13.10000000      13.10000000      -0.12293869       0.01305779      -0.44494900
Al       9.05000000      15.12500000      15.12500000      -0.06117246       0.00211983       0.70432194
Al      11.07500000      13.10000000      15.12500000      -0.03545922      -0.01399903       0.72881667
Al      11.07500000      15.12500000      13.10000000       0.34572232       0.01290437      -0.50889942
Al       9.05000000      17.15000000       5.00000000      -0.05698120       0.01913729      -0.70815361
Al       9.05000000      19.17500000       7.02500000      -0.08279204       0.08279204       0.47495723
Al      11.07500000      17.15000000       7.02500000       0.00012004      -0.00012004       0.39416559
Al      11.07500000      19.17500000       5.00000000      -0.01913729       0.05698120      -0.70815361
Al       9.04780505      17.13907282       9.06426625       0.00245643       0.00348191      -0.03939679
Al       9.07070853      19.15429147      11.07103714      -0.00159299       0.00159299       0.04856996
Al      11.14528219      17.07971781      11.08679251      -0.01535494       0.01535494       0.05450506
Al      11.08592718      19.17719495       9.06426625      -0.00348191      -0.00245643      -0.03939679
Al       9.05000000      17.15000000      13.10000000      -0.10506417       0.00519766      -0.44640626
Al       9.05000000      19.17500000      15.12500000      -0.05252669       0.05252669       0.70285236
Al      11.07500000      17.15000000      15.12500000      -0.03297719       0.03297719       0.72616993
Al      11.07500000      19.17500000      13.10000000      -0.00519766       0.10506417      -0.44640626
Al       9.05000000      21.20000000       5.00000000      -0.04821957      -0.32487758      -0.64071948
Al       9.05000000      23.22500000       7.02500000      -0.03225059       0.59320486       0.24682055
Al      11.07500000      21.20000000       7.02500000      -0.00325603      -0.04916619       0.57671586
Al      11.07500000      23.22500000       5.00000000      -0.01152088       0.20414192      -0.17431074
Al       9.05836063      21.23022433       9.07125110       0.00181295       0.00944453      -0.04053676
Al       9.04121683      23.41174358      11.09676108       0.00503823       0.00200152       0.00559496
Al      11.06846554      21.26502424      11.05067415       0.00099989       0.01121712       0.04145059
Al      11.06491840      23.43216538       9.03410589       0.00103051       0.00360076       0.00202268
Al       9.05000000      21.20000000      13.10000000      -0.05410619      -0.08676753      -0.57712315
Al       9.05000000      23.22500000      15.12500000      -0.04086586       0.19496705       0.17166854
Al      11.07500000      21.20000000      15.12500000      -0.01424431      -0.32211440       0.64084409
Al      11.07500000      23.22500000      13.10000000      -0.01112348       0.63061314      -0.24902924
Al      13.10000000       5.00000000       5.00000000       0.00105232      -0.20660790      -0.17475677
Al      13.10000000       7.02500000       7.02500000       0.00025334      -0.00425507       0.55314849
Al      15.12500000       5.00000000       7.02500000       0.01302785      -0.63859549       0.26166683
Al      15.12500000       7.02500000       5.00000000       0.00160752       0.31992917      -0.64357453
Al      13.09803125       4.78951173       9.03298431       0.00004075      -0.00569266       0.00021146
Al      13.09833213       6.95754614      11.05011545      -0.00231855      -0.01275035       0.03860354
Al      15.12702392       4.78980312      11.09201943       0.00074292      -0.00657235      -0.00113041
Al      15.12799437       6.95632444       9.07409588       0.00179425      -0.01408463      -0.04071084
Al      13.10000000       5.00000000      13.10000000      -0.01160711      -0.63562969      -0.26463730
Al      13.10000000       7.02500000      15.12500000      -0.00086438       0.32091264       0.64398709
Al      15.12500000       5.00000000      15.12500000      -0.00054914      -0.20666004       0.17523170
Al      15.12500000       7.02500000      13.10000000       0.00119777       0.00047498      -0.55506579
Al      13.10000000       9.05000000       5.00000000      -0.00186980      -0.06047448      -0.70746552
Al      13.10000000      11.07500000       7.02500000      -0.01039432       0.04205578       0.43602297
Al      15.12500000       9.05000000       7.02500000       0.00481261      -0.13579542       0.42904175
Al      15.12500000      11.07500000       5.00000000       0.00506627      -0.02544726      -0.71310121
Al      13.10007406       9.02169911       9.05334081      -0.00401639      -0.00766361      -0.04374854
Al      13.10054517      11.04654764      11.07377710      -0.00598982      -0.00442197       0.04118154
Al      15.12806293       9.02007839      11.06899426       0.00144443      -0.00626318       0.04211018
Al      15.11299101      11.08319248       9.06351108       0.00340405      -0.00108166      -0.03919478
Al      13.10000000       9.05000000      13.10000000      -0.00249717      -0.20135587      -0.37243453
Al      13.10000000      11.07500000      15.12500000      -0.00431974      -0.02545835       0.70727575
Al      15.12500000       9.05000000      15.12500000       0.00220346      -0.05957669       0.70605913
Al      15.12500000      11.07500000      13.10000000      -0.00602347      -0.00934732      -0.38459432
Al      13.10000000      13.10000000       5.00000000      -0.00415117      -0.00277312      -0.71743820
Al      13.10000000      15.12500000       7.02500000      -0.01433129       0.01433129       0.10047833
Al      15.12500000      13.10000000       7.02500000      -0.03380711       0.03380711       0.37378222
Al      15.12500000      15.12500000       5.00000000       0.00277312       0.00415117      -0.71743820
Al      13.09815596      13.14102928       9.08830693      -0.00564089       0.03008404      -0.02519371
Al      15.05038547      13.17461453      11.08863886       0.01039765      -0.01039765       0.05270594
Al      15.08397072      15.12684404       9.08830693      -0.03008404       0.00564089      -0.02519371
Al      13.10000000      13.10000000      13.10000000      -0.02150545       0.38375880      -0.49189689
Al      13.10000000      15.12500000      15.12500000      -0.00458513       0.00458513       0.86991270
Al      15.12500000      13.10000000      15.12500000       0.01431282      -0.01431282       0.73185486
Al      15.12500000      15.12500000      13.10000000      -0.38375880       0.02150545      -0.49189689
Al      13.10000000      17.15000000       5.00000000      -0.00353984       0.02244803      -0.71416281
Al      13.10000000      19.17500000       7.02500000      -0.00315101       0.07158160       0.49322464
Al      15.12500000      17.15000000       7.02500000      -0.03542459       0.01075627       0.38608948
Al      15.12500000      19.17500000       5.00000000       0.00338610       0.06015939      -0.71040239
Al      13.09936715      17.11827810       9.08737822      -0.00502843      -0.02467962      -0.02426804
Al      13.09987884      19.22083077      11.07235498      -0.00360828       0.00478112       0.04420719
Al      15.05055163      17.08469498      11.08785794       0.01070079       0.01675167       0.05302248
Al      15.11374311      19.18500763       9.06386515       0.00198939       0.00164137      -0.03933810
Al      13.10000000      17.15000000      13.10000000      -0.01290437      -0.34572232      -0.50889942
Al      13.10000000      19.17500000      15.12500000      -0.00211983       0.06117246       0.70432194
Al      15.12500000      17.15000000      15.12500000       0.01399903       0.03545922       0.72881667
Al      15.12500000      19.17500000      13.10000000      -0.01305779       0.12293869      -0.44494900
Al      13.10000000      21.20000000       5.00000000      -0.00009733      -0.31891598      -0.64453825
Al      13.10000000      23.22500000       7.02500000      -0.01126271       0.64524027       0.25821619
Al      15.12500000      21.20000000       7.02500000       0.00077958      -0.03420115       0.58956619
Al      15.12500000      23.22500000       5.00000000      -0.00011295       0.20735263      -0.17400770
Al      13.09812222      21.27054021       9.07252408      -0.00127775       0.01448766      -0.03848054
Al      13.09791392      23.43596295      11.09124683       0.00058879       0.00343927       0.00149520
Al      15.12954558      21.27203231      11.04901524       0.00005191       0.01371454       0.04134357
Al      15.12800794      23.43809733       9.03212084       0.00019720       0.00453518       0.00145175
Al      13.10000000      21.20000000      13.10000000       0.00020429       0.03166380      -0.53292242
Al      13.10000000      23.22500000      15.12500000       0.00099072       0.20587662       0.17383276
Al      15.12500000      21.20000000      15.12500000       0.00075698      -0.31932223       0.64236087
Al      15.12500000      23.22500000      13.10000000       0.01201576       0.63927187      -0.26286441
Al      17.15000000       5.00000000       5.00000000       0.01274744      -0.20256806      -0.17427000
Al      17.15000000       7.02500000       7.02500000       0.00583615       0.03090653       0.55635902
Al      19.17500000       5.00000000       7.02500000       0.03360251      -0.59712149       0.24595818
Al      19.17500000       7.02500000       5.00000000       0.04881210       0.32564287      -0.63895656
Al      17.15919425       4.79468205       9.03498687       0.00184926      -0.00560264      -0.00144777
Al      17.15474890       6.96373521      11.05151616       0.00109988      -0.01182154       0.03947343
Al      19.18268940       4.81529652      11.09691198      -0.00143798      -0.00560667       0.00394608
Al      19.16913189       6.99116612       9.07088495       0.00064567      -0.01172519      -0.04813823
Al      17.15000000       5.00000000      13.10000000       0.01241746      -0.62797905      -0.25111800
Al      17.15000000       7.02500000      15.12500000       0.01480864       0.32324277       0.64229546
Al      19.17500000       5.00000000      15.12500000       0.04193434      -0.19553107       0.17240939
Al      19.17500000       7.02500000      13.10000000       0.05983297       0.07350923      -0.56655413
Al      17.15000000       9.05000000       5.00000000       0.02033619      -0.05746108      -0.70501479
Al      17.15000000      11.07500000       7.02500000       0.01320815      -0.01320815       0.39108349
Al      19.17500000       9.05000000       7.02500000       0.10318426      -0.10318426       0.45059884
Al      19.17500000      11.07500000       5.00000000       0.05746108      -0.02033619      -0.70501479
Al      17.14454323       9.03991319       9.05746965       0.00503334      -0.00379618      -0.04569917
Al      17.12855622      11.09644378      11.07118345       0.00767513      -0.00767513       0.04340717
Al      19.16915936       9.05584064      11.06963057       0.00132053      -0.00132053       0.04644048
Al      19.18508681      11.08045677       9.05746965       0.00379618      -0.00503334      -0.04569917
Al      17.15000000       9.05000000      13.10000000       0.01578896      -0.12384263      -0.42022042
Al      17.15000000      11.07500000      15.12500000       0.02314763      -0.02314763       0.70815913
Al      19.17500000       9.05000000      15.12500000       0.05182316      -0.05182316       0.70276563
Al      19.17500000      11.07500000      13.10000000       0.12384263      -0.01578896      -0.42022042
Al      17.15000000      13.10000000       5.00000000       0.02544726      -0.00506627      -0.71310121
Al      17.15000000      15.12500000       7.02500000      -0.04205578       0.01039432       0.43602297
Al      19.17500000      13.10000000       7.02500000       0.13579542      -0.00481261       0.42904175
Al      19.17500000      15.12500000       5.00000000       0.06047448       0.00186980      -0.70746552
Al      17.14180752      13.11200899       9.06351108       0.00108166      -0.00340405      -0.03919478
Al      17.17845236      15.12445483      11.07377710       0.00442197       0.00598982       0.04118154
Al      19.20492161      13.09693707      11.06899426       0.00626318      -0.00144443       0.04211018
Al      19.20330089      15.12492594       9.05334081       0.00766361       0.00401639      -0.04374854
Al      17.15000000      13.10000000      13.10000000       0.00934732       0.00602347      -0.38459432
Al      17.15000000      15.12500000      15.12500000       0.02545835       0.00431974       0.70727575
Al      19.17500000      13.10000000      15.12500000       0.05957669      -0.00220346       0.70605913
Al      19.17500000      15.12500000      13.10000000       0.20135587       0.00249717      -0.37243453
Al      17.15000000      17.15000000       5.00000000       0.02326537       0.02314104      -0.71060619
Al      17.15000000      19.17500000       7.02500000      -0.00833796       0.11836552       0.44095192
Al      19.17500000      17.15000000       7.02500000       0.11791130       0.02210178       0.43147328
Al      19.17500000      19.17500000       5.00000000       0.05251474       0.05290755      -0.70290313
Al      17.13740504      17.14168219       9.06475602      -0.00057146       0.00771693      -0.03892289
Al      17.12604645      19.16847273      11.07074514       0.00432195       0.00705606       0.04717202
Al      19.19690911      17.15239805      11.06869284       0.00260922       0.00493841       0.04433596
Al      19.17122130      19.17275243       9.05722003      -0.00131112       0.00272374      -0.04557573
Al      17.15000000      17.15000000      13.10000000      -0.00216058       0.03048206      -0.39847452
Al      17.15000000      19.17500000      15.12500000       0.01931693       0.05802860       0.70515202
Al      19.17500000      17.15000000      15.12500000       0.05636387       0.01948791       0.70343224
Al      19.17500000      19.17500000      13.10000000       0.08789762       0.10763786      -0.45779770
Al      17.15000000      21.20000000       5.00000000       0.01573846      -0.32185410      -0.64268697
Al      17.15000000      23.22500000       7.02500000       0.01441604       0.61617952       0.26049999
Al      19.17500000      21.20000000       7.02500000       0.05498769      -0.07505161       0.56933846
Al      19.17500000      23.22500000       5.00000000       0.04173002       0.19486913      -0.17246420
Al      17.14857010      21.25314932       9.07394958       0.00058506       0.01170750      -0.03923465
Al      17.15995878      23.43065128      11.08941818      -0.00160130       0.00323631       0.00100631
Al      19.16303772      21.22768402      11.05505285      -0.00327450       0.01197936       0.04504999
Al      19.18113709      23.40374924       9.02879775      -0.00383830       0.00333766      -0.00525186
Al      17.15000000      21.20000000      13.10000000      -0.00366492      -0.04495820      -0.56698411
Al      17.15000000      23.22500000      15.12500000       0.01132586       0.20231245       0.17386361
Al      19.17500000      21.20000000      15.12500000       0.04676821      -0.32549856       0.63966771
Al      19.17500000      23.22500000      13.10000000       0.03066304       0.59156878      -0.25117694
Al      21.20000000       5.00000000       5.00000000      -0.45347153      -0.09009295      -0.08303096
Al      21.20000000       7.02500000       7.02500000      -0.15130964       0.15130964       0.67585798
Al      23.22500000       5.00000000       7.02500000       0.04440358      -0.04440358       0.53270152
Al      23.22500000       7.02500000       5.00000000       0.09009295       0.45347153      -0.08303096
Al      21.17792831       4.87882015       9.04721554       0.00330208      -0.00775938      -0.01036015
Al      21.19633598       7.02866402      11.04145713       0.01031065      -0.01031065       0.03998065
Al      23.24679854       4.97820146      11.07554043       0.01605194      -0.01605194      -0.02355297
Al      23.34617985       7.04707169       9.04721554       0.00775938      -0.00330208      -0.01036015
Al      21.20000000       5.00000000      13.10000000      -0.24682416      -0.49255366      -0.38303207
Al      21.20000000       7.02500000      15.12500000      -0.32339089       0.32339089       0.58447707
Al      23.22500000       5.00000000      15.12500000      -0.32855190       0.32855190      -0.33464215
Al      23.22500000       7.02500000      13.10000000       0.49255366       0.24682416      -0.38303207
Al      21.20000000       9.05000000       5.00000000      -0.32564287      -0.04881210      -0.63895656
Al      21.20000000      11.07500000       7.02500000      -0.03090653      -0.00583615       0.55635902
Al      23.22500000       9.05000000       7.02500000       0.59712149      -0.03360251       0.24595818
Al      23.22500000      11.07500000       5.00000000       0.20256806      -0.01274744      -0.17427000
Al      21.23383388       9.05586811       9.07088495       0.01172519      -0.00064567      -0.04813823
Al      21.26126479      11.07025110      11.05151616       0.01182154      -0.00109988       0.03947343
Al      23.40970348       9.04231060      11.09691198       0.00560667       0.00143798       0.00394608
Al      23.43031795      11.06580575       9.03498687       0.00560264      -0.00184926      -0.00144777
Al      21.20000000       9.05000000      13.10000000      -0.07350923      -0.05983297      -0.56655413
Al      21.20000000      11.07500000      15.12500000      -0.32324277      -0.01480864       0.64229546
Al      23.22500000       9.05000000      15.12500000       0.19553107      -0.04193434       0.17240939
Al      23.22500000      11.07500000      13.10000000       0.62797905      -0.01241746      -0.25111800
Al      21.20000000      13.10000000       5.00000000      -0.31992917      -0.00160752      -0.64357453
Al      21.20000000      15.12500000       7.02500000       0.00425507      -0.00025334       0.55314849
Al      23.22500000      13.10000000       7.02500000       0.63859549      -0.01302785       0.26166683
Al      23.22500000      15.12500000       5.00000000       0.20660790      -0.00105232      -0.17475677
Al      21.26867556      13.09700563       9.07409588       0.01408463      -0.00179425      -0.04071084
Al      21.26745386      15.12666787      11.05011545       0.01275035       0.00231855       0.03860354
Al      23.43519688      13.09797608      11.09201943       0.00657235      -0.00074292      -0.00113041
Al      23.43548827      15.12696875       9.03298431       0.00569266      -0.00004075       0.00021146
Al      21.20000000      13.10000000      13.10000000      -0.00047498      -0.00119777      -0.55506579
Al      21.20000000      15.12500000      15.12500000      -0.32091264       0.00086438       0.64398709
Al      23.22500000      13.10000000      15.12500000       0.20666004       0.00054914       0.17523170
Al      23.22500000      15.12500000      13.10000000       0.63562969       0.01160711      -0.26463730
Al      21.20000000      17.15000000       5.00000000      -0.32252774       0.01482805      -0.64211171
Al      21.20000000      19.17500000       7.02500000      -0.07262560       0.06222704       0.56747816
Al      23.22500000      17.15000000       7.02500000       0.62955825       0.01132615       0.24826412
Al      23.22500000      19.17500000       5.00000000       0.19537494       0.04191098      -0.17204046
Al      21.26162670      17.15472494       9.07261239       0.01173719       0.00202149      -0.04042311
Al      21.23873785      19.17258440      11.05429704       0.00929725      -0.00084706       0.04363939
Al      23.42949847      17.15882331      11.09002544       0.00492516       0.00069203      -0.00083695
Al      23.41154282      19.18269440       9.02764704       0.00374691      -0.00180685      -0.00493679
Al      21.20000000      17.15000000      13.10000000      -0.01640010       0.00443898      -0.54362365