299
Lattice="28.224999999999998 0.0 0.0 0.0 28.224999999999998 0.0 0.0 0.0 20.125" Properties=species:S:1:pos:R:3:forces:R:3 energy=-16469.30093902583 pbc="T T T"
Al       5.00000000       5.00000000       5.00000000       0.32645091       0.32602620       0.33157805
Al       5.00000000       7.02500000       7.02500000      -0.50117801       0.23793671       0.38456508
Al       7.02500000       5.00000000       7.02500000       0.23274066      -0.49989653       0.38264606
Al       7.02500000       7.02500000       5.00000000       0.32258453       0.32225407      -0.59228505
Al       4.97854907       4.97958004       9.05401229      -0.01342784      -0.01385624       0.03268383
Al       4.87955697       7.05155156      11.08369081       0.00226715      -0.00991623      -0.03543658
Al       7.04823151       4.87300727      11.08400725      -0.00803820      -0.00149463      -0.03516051
Al       7.02756173       7.02772755       9.08151654      -0.00592146      -0.00891928       0.01868634
Al       5.00000000       5.00000000      13.10000000      -0.05295837      -0.04730368      -0.52860756
Al       5.00000000       7.02500000      15.12500000      -0.09489528       0.45457829       0.08450581
Al       7.02500000       5.00000000      15.12500000       0.45474086      -0.09567958       0.08349953
Al       7.02500000       7.02500000      13.10000000       0.14684226       0.15164188      -0.67015909
Al       5.00000000       9.05000000       5.00000000      -0.20121975      -0.03829025      -0.17655600
Al       5.00000000      11.07500000       7.02500000      -0.62399142      -0.00729157       0.24133859
Al       7.02500000       9.05000000       7.02500000       0.06932171      -0.05309617       0.55843937
Al       7.02500000      11.07500000       5.00000000       0.32813896      -0.00672591      -0.65275956
Al       4.81859422       9.04527324       9.02431505       0.00069696      -0.00421716       0.04212601
Al       4.79466335      11.06609945      11.09275880      -0.00545159      -0.00079341      -0.03288909
Al       6.99698456       9.06330713      11.05877097      -0.00695005      -0.00275323      -0.00965500
Al       6.97253500      11.07714412       9.06939438      -0.00901120      -0.00062234       0.02590072
Al       5.00000000       9.05000000      13.10000000      -0.59733961      -0.01865371      -0.22743217
Al       5.00000000      11.07500000      15.12500000      -0.20163404      -0.00621878       0.17659170
Al       7.02500000       9.05000000      15.12500000       0.33016724      -0.04000369       0.64716847
Al       7.02500000      11.07500000      13.10000000       0.04677362       0.01090843      -0.54333027
Al       5.00000000      13.10000000       5.00000000      -0.20678859       0.00336712      -0.17781205
Al       5.00000000      15.12500000       7.02500000      -0.64915596       0.01208992       0.23801486
Al       7.02500000      13.10000000       7.02500000       0.03864868       0.00498992       0.56490568
Al       7.02500000      15.12500000       5.00000000       0.32734861      -0.00226236      -0.65272585
Al       4.78948866      13.09771161       9.02816151      -0.01150785      -0.00068482       0.04222620
Al       4.79217626      15.12668104      11.09482203      -0.01060596       0.00137219      -0.03256137
Al       6.95400548      13.09561285      11.05365960      -0.00745956       0.00072822      -0.01416901
Al       6.95574318      15.12718218       9.06797490      -0.00972187       0.00070277       0.02458744
Al       5.00000000      13.10000000      13.10000000      -0.64118394      -0.00937572      -0.24025368
Al       5.00000000      15.12500000      15.12500000      -0.20229839      -0.00259874       0.17595099
Al       7.02500000      13.10000000      15.12500000       0.33052919       0.00360406       0.64861321
Al       7.02500000      15.12500000      13.10000000      -0.02640604      -0.00119070      -0.50356086
Al       5.00000000      17.15000000       5.00000000      -0.20568714       0.00755149      -0.17773865
Al       5.00000000      19.17500000       7.02500000      -0.60084465       0.02384680       0.22779168
Al       7.02500000      17.15000000       7.02500000       0.04958544      -0.00131623       0.55619112
Al       7.02500000      19.17500000       5.00000000       0.32734474       0.04212533      -0.64929045
Al       4.79383389      17.15936913       9.03055597      -0.00823937       0.00183161       0.04166271
Al       4.81158592      19.18297523      11.10060138       0.00147530       0.00221544      -0.03341269
Al       6.96035108      17.15677597      11.05503502      -0.00530331      -0.00258977      -0.01295149
Al       6.99502245      19.16587041       9.06731052      -0.00772479       0.00289580       0.02101843
Al       5.00000000      17.15000000      13.10000000      -0.63503416       0.00747241      -0.22948775
Al       5.00000000      19.17500000      15.12500000      -0.19770980       0.03743573       0.17306516
Al       7.02500000      17.15000000      15.12500000       0.33104178       0.00625976       0.64734846
Al       7.02500000      19.17500000      13.10000000       0.08375102       0.05371352      -0.56371488
Al       5.00000000      21.20000000       5.00000000      -0.09750498      -0.45290023      -0.08497189
Al       5.00000000      23.22500000       7.02500000      -0.05059202       0.05059202       0.53323048
Al       7.02500000      21.20000000       7.02500000       0.15255889      -0.15255889       0.66926991
Al       7.02500000      23.22500000       5.00000000       0.45290023       0.09750498      -0.08497189
Al       4.87986509      21.17402916       9.04112120      -0.00154298       0.00918872       0.04004348
Al       4.98256273      23.24243727      11.07024184      -0.01224088       0.01224088      -0.02965730
Al       7.03423937      21.19076063      11.04462368      -0.00636815       0.00636815      -0.00806373
Al       7.05097084      23.34513491       9.04112120      -0.00918872       0.00154298       0.04004348
Al       5.00000000      21.20000000      13.10000000      -0.48953015      -0.23850998      -0.38199902
Al       5.00000000      23.22500000      15.12500000       0.32903780      -0.32903780      -0.33259067
Al       7.02500000      21.20000000      15.12500000       0.32479007      -0.32479007       0.58912456
Al       7.02500000      23.22500000      13.10000000       0.23850998       0.48953015      -0.38199902
Al       9.05000000       5.00000000       5.00000000      -0.03818603      -0.20186488      -0.17554084
Al       9.05000000       7.02500000       7.02500000      -0.06231092       0.06669172       0.55764639
Al      11.07500000       5.00000000       7.02500000      -0.00700826      -0.63805768       0.23209570
Al      11.07500000       7.02500000       5.00000000      -0.00643514       0.32794232      -0.65157258
Al       9.04261643       4.81223483       9.02369800      -0.00303405      -0.00187535       0.04105941
Al       9.05270480       6.98638011      11.05799019      -0.00126291      -0.00629798      -0.00989382
Al      11.06694717       4.79689550      11.09324737      -0.00275075      -0.00863434      -0.03360767
Al      11.07017423       6.96387604       9.06809846       0.00039007      -0.00837557       0.02424459
Al       9.05000000       5.00000000      13.10000000      -0.02167129      -0.60978134      -0.21925994
Al       9.05000000       7.02500000      15.12500000      -0.03983777       0.33002963       0.64628095
Al      11.07500000       5.00000000      15.12500000      -0.00661335      -0.20168126       0.17654443
Al      11.07500000       7.02500000      13.10000000       0.00168791       0.01566211      -0.51899977
Al       9.05000000       9.05000000       5.00000000      -0.04162488      -0.04179320      -0.71526081
Al       9.05000000      11.07500000       7.02500000      -0.10401118       0.02160689       0.41514796
Al      11.07500000       9.05000000       7.02500000      -0.01140147      -0.10426880       0.40545293
Al      11.07500000      11.07500000       5.00000000      -0.00951824      -0.00927217      -0.71956357
Al       9.05291897       9.05477769       9.05317090      -0.00277158      -0.00081855       0.02133933
Al       9.05793608      11.10033019      11.07520727      -0.00267749      -0.00242290      -0.00976881
Al      11.07287093       9.02858132      11.07305627      -0.00040146       0.00335047      -0.01088859
Al      11.08440962      11.08902939       9.06104839      -0.00289665       0.00139963       0.02123246
Al       9.05000000       9.05000000      13.10000000      -0.10033545      -0.08052045      -0.43538943
Al       9.05000000      11.07500000      15.12500000      -0.04116580      -0.00692542       0.71299992
Al      11.07500000       9.05000000      15.12500000      -0.00706110      -0.04136470       0.71095345
Al      11.07500000      11.07500000      13.10000000      -0.01374408       0.02153706      -0.36057744
Al       9.05000000      13.10000000       5.00000000      -0.04395903       0.00226691      -0.71984706
Al       9.05000000      15.12500000       7.02500000      -0.05767578       0.00113858       0.45963210
Al      11.07500000      13.10000000       7.02500000       0.00301830       0.04108000       0.34633609
Al      11.07500000      15.12500000       5.00000000      -0.00821042      -0.00126203      -0.72117840
Al       9.04116515      13.11242137       9.05994591       0.00115500      -0.00543209       0.02195076
Al       9.00478981      15.12523000      11.07732766       0.00330995       0.00305823      -0.01202781
Al      11.14257096      13.17681037      11.09266720      -0.00871834      -0.01210054      -0.00289342
Al      11.10746637      15.12562970       9.08247681       0.01767867       0.00293920       0.03230441
Al       9.05000000      13.10000000      13.10000000      -0.10117595       0.02103160      -0.40875202
Al       9.05000000      15.12500000      15.12500000      -0.04012687      -0.00198246       0.70906064
Al      11.07500000      13.10000000      15.12500000      -0.01661858      -0.00533700       0.72974810
Al      11.07500000      15.12500000      13.10000000       0.36708345       0.00937083      -0.45711275
Al       9.05000000      17.15000000       5.00000000      -0.04324892       0.00890921      -0.71826776
Al       9.05000000      19.17500000       7.02500000      -0.07603026       0.07603026       0.45576078
Al      11.07500000      17.15000000       7.02500000       0.01082798      -0.01082798       0.35711511
Al      11.07500000      19.17500000       5.00000000      -0.00890921       0.04324892      -0.71826776
Al       9.04878079      17.13854508       9.06038217       0.00261954       0.00198180       0.02216328
Al       9.07153159      19.15346841      11.07511889      -0.00079213       0.00079213      -0.00744491
Al      11.14697618      17.07802382      11.09132948      -0.00912984       0.00912984      -0.00046446
Al      11.08645492      19.17621921       9.06038217      -0.00198180      -0.00261954       0.02216328
Al       9.05000000      17.15000000      13.10000000      -0.08792030      -0.00496968      -0.41485792
Al       9.05000000      19.17500000      15.12500000      -0.04007223       0.04007223       0.71096583
Al      11.07500000      17.15000000      15.12500000      -0.01638052       0.01638052       0.72895998
Al      11.07500000      19.17500000      13.10000000       0.00496968       0.08792030      -0.41485792
Al       9.05000000      21.20000000       5.00000000      -0.04212533      -0.32734474      -0.64929045
Al       9.05000000      23.22500000       7.02500000      -0.02384680       0.60084465       0.22779168
Al      11.07500000      21.20000000       7.02500000       0.00131623      -0.04958544       0.55619112
Al      11.07500000      23.22500000       5.00000000      -0.00755149       0.20568714      -0.17773865
Al       9.05912959      21.22997755       9.06731052      -0.00289580       0.00772479       0.02101843
Al       9.04202477      23.41341408      11.10060138      -0.00221544      -0.00147530      -0.03341269
Al      11.06822403      21.26464892      11.05503502       0.00258977       0.00530331      -0.01295149
Al      11.06563087      23.43116611       9.03055597      -0.00183161       0.00823937       0.04166271
Al       9.05000000      21.20000000      13.10000000      -0.05371352      -0.08375102      -0.56371488
Al       9.05000000      23.22500000      15.12500000      -0.03743573       0.19770980       0.17306516
Al      11.07500000      21.20000000      15.12500000      -0.00625976      -0.33104178       0.64734846
Al      11.07500000      23.22500000      13.10000000      -0.00747241       0.63503416      -0.22948775
Al      13.10000000       5.00000000       5.00000000       0.00280480      -0.20636872      -0.17817085
Al      13.10000000       7.02500000       7.02500000       0.00239918      -0.00189821       0.52848475
Al      15.12500000       5.00000000       7.02500000       0.01065205      -0.64377582       0.24264376
Al      15.12500000       7.02500000       5.00000000      -0.00302220       0.32743731      -0.65248543
Al      13.09857525       4.79268824       9.02930725      -0.00136657      -0.01406843       0.04067313
Al      13.09824131       6.95890236      11.05470920      -0.00143887      -0.00992588      -0.01484311
Al      15.12642356       4.79287297      11.09570312       0.00148597      -0.01288209      -0.03418850
Al      15.12802153       6.95753967       9.06947302       0.00072648      -0.01085212       0.02392325
Al      13.10000000       5.00000000      13.10000000      -0.01097233      -0.63626688      -0.24271172
Al      13.10000000       7.02500000      15.12500000       0.00284092       0.33041096       0.64907995
Al      15.12500000       5.00000000      15.12500000      -0.00356504      -0.20241226       0.17628176
Al      15.12500000       7.02500000      13.10000000      -0.00237020       0.00409757      -0.52544852
Al      13.10000000       9.05000000       5.00000000       0.00220575      -0.04447562      -0.71698587
Al      13.10000000      11.07500000       7.02500000      -0.00574964       0.05700121       0.39899182
Al      15.12500000       9.05000000       7.02500000      -0.00185244      -0.11927171       0.39885332
Al      15.12500000      11.07500000       5.00000000      -0.00145904      -0.00996831      -0.72037988
Al      13.10014626       9.02233084       9.04919806      -0.00331896       0.00055930       0.02016346
Al      13.10088729      11.04712065      11.07898602      -0.00422151       0.00697429      -0.01369303
Al      15.12777179       9.02053425      11.07349095       0.00142879       0.00218454      -0.01104468
Al      15.11184576      11.08439565       9.05963455       0.00456673       0.00462506       0.02160640
Al      13.10000000       9.05000000      13.10000000       0.00197966      -0.18621981      -0.33436797
Al      13.10000000      11.07500000      15.12500000       0.00183505      -0.00667242       0.70899897
Al      15.12500000       9.05000000      15.12500000      -0.00303376      -0.04212203       0.71189917
Al      15.12500000      11.07500000      13.10000000      -0.01436772       0.01228243      -0.34251015
Al      13.10000000      13.10000000       5.00000000       0.00142873       0.00356432      -0.72235365
Al      13.10000000      15.12500000       7.02500000      -0.00896621       0.00896621       0.05300601
Al      15.12500000      13.10000000       7.02500000      -0.03983018       0.03983018       0.33179789
Al      15.12500000      15.12500000       5.00000000      -0.00356432      -0.00142873      -0.72235365
Al      13.09832884      13.14190529       9.08331157      -0.00263694       0.01584271       0.03109431
Al      15.04785330      13.17714670      11.09360275       0.01147818      -0.01147818      -0.00275884
Al      15.08309471      15.12667116       9.08331157      -0.01584271       0.00263694       0.03109431
Al      13.10000000      13.10000000      13.10000000      -0.01543278       0.39600502      -0.43515849
Al      13.10000000      15.12500000      15.12500000       0.00178471      -0.00178471       0.86775198
Al      15.12500000      13.10000000      15.12500000       0.00541299      -0.00541299       0.72995551
Al      15.12500000      15.12500000      13.10000000      -0.39600502       0.01543278      -0.43515849
Al      13.10000000      17.15000000       5.00000000       0.00126203       0.00821042      -0.72117840
Al      13.10000000      19.17500000       7.02500000      -0.00113858       0.05767578       0.45963210
Al      15.12500000      17.15000000       7.02500000      -0.04108000      -0.00301830       0.34633609
Al      15.12500000      19.17500000       5.00000000      -0.00226691       0.04395903      -0.71984706
Al      13.09937030      17.11753363       9.08247681      -0.00293920      -0.01767867       0.03230441
Al      13.09977000      19.22021019      11.07732766      -0.00305823      -0.00330995      -0.01202781
Al      15.04818963      17.08242904      11.09266720       0.01210054       0.00871834      -0.00289342
Al      15.11257863      19.18383485       9.05994591       0.00543209      -0.00115500       0.02195076
Al      13.10000000      17.15000000      13.10000000      -0.00937083      -0.36708345      -0.45711275
Al      13.10000000      19.17500000      15.12500000       0.00198246       0.04012687       0.70906064
Al      15.12500000      17.15000000      15.12500000       0.00533700       0.01661858       0.72974810
Al      15.12500000      19.17500000      13.10000000      -0.02103160       0.10117595      -0.40875202
Al      13.10000000      21.20000000       5.00000000       0.00226236      -0.32734861      -0.65272585
Al      13.10000000      23.22500000       7.02500000      -0.01208992       0.64915596       0.23801486
Al      15.12500000      21.20000000       7.02500000      -0.00498992      -0.03864868       0.56490568
Al      15.12500000      23.22500000       5.00000000      -0.00336712       0.20678859      -0.17781205
Al      13.09781782      21.26925682       9.06797490      -0.00070277       0.00972187       0.02458744
Al      13.09831896      23.43282374      11.09482203      -0.00137219       0.01060596      -0.03256137
Al      15.12938715      21.27099452      11.05365960      -0.00072822       0.00745956      -0.01416901
Al      15.12728839      23.43551134       9.02816151       0.00068482       0.01150785       0.04222620
Al      13.10000000      21.20000000      13.10000000       0.00119070       0.02640604      -0.50356086
Al      13.10000000      23.22500000      15.12500000       0.00259874       0.20229839       0.17595099
Al      15.12500000      21.20000000      15.12500000      -0.00360406      -0.33052919       0.64861321
Al      15.12500000      23.22500000      13.10000000       0.00937572       0.64118394      -0.24025368
Al      17.15000000       5.00000000       5.00000000       0.00695681      -0.20549093      -0.17863558
Al      17.15000000       7.02500000       7.02500000      -0.00139615       0.02936891       0.53692638
Al      19.17500000       5.00000000       7.02500000       0.02239040      -0.60745015       0.22610689
Al      19.17500000       7.02500000       5.00000000       0.04150964       0.32750698      -0.64983235
Al      17.15844710       4.79534767       9.03153475       0.00270370      -0.00951439       0.03975864
Al      17.15478517       6.96406538      11.05589180      -0.00107248      -0.00786782      -0.01475922
Al      19.18216651       4.81300994      11.10096112       0.00266462       0.00009515      -0.03570494
Al      19.16849666       6.99099036       9.06696954       0.00331604      -0.00813891       0.01746817
Al      17.15000000       5.00000000      13.10000000       0.00594948      -0.63227834      -0.23105280
Al      17.15000000       7.02500000      15.12500000       0.00519189       0.33113186       0.64878454
Al      19.17500000       5.00000000      15.12500000       0.03669710      -0.19842015       0.17438489
Al      19.17500000       7.02500000      13.10000000       0.05742334       0.06999469      -0.55283730
Al      17.15000000       9.05000000       5.00000000       0.00829869      -0.04337221      -0.71690204
Al      17.15000000      11.07500000       7.02500000      -0.00359221       0.00359221       0.36046973
Al      19.17500000       9.05000000       7.02500000       0.09603075      -0.09603075       0.43295648
Al      19.17500000      11.07500000       5.00000000       0.04337221      -0.00829869      -0.71690204
Al      17.14365884       9.04103609       9.05332714       0.00286890      -0.00126669       0.02091712
Al      17.12675371      11.09824629      11.07573211       0.00283663      -0.00283663      -0.00974820
Al      19.16816725       9.05683275      11.07369155       0.00257779      -0.00257779      -0.01018324
Al      19.18396391      11.08134116       9.05332714       0.00126669      -0.00286890       0.02091712
Al      17.15000000       9.05000000      13.10000000       0.00403100      -0.10977032      -0.38885491
Al      17.15000000      11.07500000      15.12500000       0.00790054      -0.00790054       0.71326402
Al      19.17500000       9.05000000      15.12500000       0.03959759      -0.03959759       0.71178285
Al      19.17500000      11.07500000      13.10000000       0.10977032      -0.00403100      -0.38885491
Al      17.15000000      13.10000000       5.00000000       0.00996831       0.00145904      -0.72037988
Al      17.15000000      15.12500000       7.02500000      -0.05700121       0.00574964       0.39899182
Al      19.17500000      13.10000000       7.02500000       0.11927171       0.00185244       0.39885332
Al      19.17500000      15.12500000       5.00000000       0.04447562      -0.00220575      -0.71698587
Al      17.14060435      13.11315424       9.05963455      -0.00462506      -0.00456673       0.02160640
Al      17.17787935      15.12411271      11.07898602      -0.00697429       0.00422151      -0.01369303
Al      19.20446575      13.09722821      11.07349095      -0.00218454      -0.00142879      -0.01104468
Al      19.20266916      15.12485374       9.04919806      -0.00055930       0.00331896       0.02016346
Al      17.15000000      13.10000000      13.10000000      -0.01228243       0.01436772      -0.34251015
Al      17.15000000      15.12500000      15.12500000       0.00667242      -0.00183505       0.70899897
Al      19.17500000      13.10000000      15.12500000       0.04212203       0.00303376       0.71189917
Al      19.17500000      15.12500000      13.10000000       0.18621981      -0.00197966      -0.33436797
Al      17.15000000      17.15000000       5.00000000       0.00927217       0.00951824      -0.71956357
Al      17.15000000      19.17500000       7.02500000      -0.02160689       0.10401118       0.41514796
Al      19.17500000      17.15000000       7.02500000       0.10426880       0.01140147       0.40545293
Al      19.17500000      19.17500000       5.00000000       0.04179320       0.04162488      -0.71526081
Al      17.13597061      17.14059038       9.06104839      -0.00139963       0.00289665       0.02123246
Al      17.12466981      19.16706392      11.07520727       0.00242290       0.00267749      -0.00976881
Al      19.19641868      17.15212907      11.07305627      -0.00335047       0.00040146      -0.01088859
Al      19.17022231      19.17208103       9.05317090       0.00081855       0.00277158       0.02133933
Al      17.15000000      17.15000000      13.10000000      -0.02153706       0.01374408      -0.36057744
Al      17.15000000      19.17500000      15.12500000       0.00692542       0.04116580       0.71299992
Al      19.17500000      17.15000000      15.12500000       0.04136470       0.00706110       0.71095345
Al      19.17500000      19.17500000      13.10000000       0.08052045       0.10033545      -0.43538943
Al      17.15000000      21.20000000       5.00000000       0.00672591      -0.32813896      -0.65275956
Al      17.15000000      23.22500000       7.02500000       0.00729157       0.62399142       0.24133859
Al      19.17500000      21.20000000       7.02500000       0.05309617      -0.06932171       0.55843937
Al      19.17500000      23.22500000       5.00000000       0.03829025       0.20121975      -0.17655600
Al      17.14785588      21.25246500       9.06939438       0.00062234       0.00901120       0.02590072
Al      17.15890055      23.43033665      11.09275880       0.00079341       0.00545159      -0.03288909
Al      19.16169287      21.22801544      11.05877097       0.00275323       0.00695005      -0.00965500
Al      19.17972676      23.40640578       9.02431505       0.00421716      -0.00069696       0.04212601
Al      17.15000000      21.20000000      13.10000000      -0.01090843      -0.04677362      -0.54333027
Al      17.15000000      23.22500000      15.12500000       0.00621878       0.20163404       0.17659170
Al      19.17500000      21.20000000      15.12500000       0.04000369      -0.33016724       0.64716847
Al      19.17500000      23.22500000      13.10000000       0.01865371       0.59733961      -0.22743217
Al      21.20000000       5.00000000       5.00000000      -0.45312258      -0.09800841      -0.08567061
Al      21.20000000       7.02500000       7.02500000      -0.14592324       0.14592324       0.66981049
Al      23.22500000       5.00000000       7.02500000       0.05306468      -0.05306468       0.52819099
Al      23.22500000       7.02500000       5.00000000       0.09800841       0.45312258      -0.08567061
Al      21.17570770       4.87601778       9.04109440       0.00885459      -0.00072134       0.03998098
Al      21.19658785       7.02841215      11.04414161       0.00613946      -0.00613946      -0.01212247
Al      23.24572618       4.97927382      11.07130976       0.01326167      -0.01326167      -0.02984967
Al      23.34898222       7.04929230       9.04109440       0.00072134      -0.00885459       0.03998098
Al      21.20000000       5.00000000      13.10000000      -0.23673358      -0.49734478      -0.37913156
Al      21.20000000       7.02500000      15.12500000      -0.32494921       0.32494921       0.59045088
Al      23.22500000       5.00000000      15.12500000      -0.32778630       0.32778630      -0.33206736
Al      23.22500000       7.02500000      13.10000000       0.49734478       0.23673358      -0.37913156
Al      21.20000000       9.05000000       5.00000000      -0.32750698      -0.04150964      -0.64983235
Al      21.20000000      11.07500000       7.02500000      -0.02936891       0.00139615       0.53692638
Al      23.22500000       9.05000000       7.02500000       0.60745015      -0.02239040       0.22610689
Al      23.22500000      11.07500000       5.00000000       0.20549093      -0.00695681      -0.17863558
Al      21.23400964       9.05650334       9.06696954       0.00813891      -0.00331604       0.01746817
Al      21.26093462      11.07021483      11.05589180       0.00786782       0.00107248      -0.01475922
Al      23.41199006       9.04283349      11.10096112      -0.00009515      -0.00266462      -0.03570494
Al      23.42965233      11.06655290       9.03153475       0.00951439      -0.00270370       0.03975864
Al      21.20000000       9.05000000      13.10000000      -0.06999469      -0.05742334      -0.55283730
Al      21.20000000      11.07500000      15.12500000      -0.33113186      -0.00519189       0.64878454
Al      23.22500000       9.05000000      15.12500000       0.19842015      -0.03669710       0.17438489
Al      23.22500000      11.07500000      13.10000000       0.63227834      -0.00594948      -0.23105280
Al      21.20000000      13.10000000       5.00000000      -0.32743731       0.00302220      -0.65248543
Al      21.20000000      15.12500000       7.02500000       0.00189821      -0.00239918       0.52848475
Al      23.22500000      13.10000000       7.02500000       0.64377582      -0.01065205       0.24264376
Al      23.22500000      15.12500000       5.00000000       0.20636872      -0.00280480      -0.17817085
Al      21.26746033      13.09697847       9.06947302       0.01085212      -0.00072648       0.02392325
Al      21.26609764      15.12675869      11.05470920       0.00992588       0.00143887      -0.01484311
Al      23.43212703      13.09857644      11.09570312       0.01288209      -0.00148597      -0.03418850
Al      23.43231176      15.12642475       9.02930725       0.01406843       0.00136657       0.04067313
Al      21.20000000      13.10000000      13.10000000      -0.00409757       0.00237020      -0.52544852
Al      21.20000000      15.12500000      15.12500000      -0.33041096      -0.00284092       0.64907995
Al      23.22500000      13.10000000      15.12500000       0.20241226       0.00356504       0.17628176
Al      23.22500000      15.12500000      13.10000000       0.63626688       0.01097233      -0.24271172
Al      21.20000000      17.15000000       5.00000000      -0.32794232       0.00643514      -0.65157258
Al      21.20000000      19.17500000       7.02500000      -0.06669172       0.06231092       0.55764639
Al      23.22500000      17.15000000       7.02500000       0.63805768       0.00700826       0.23209570
Al      23.22500000      19.17500000       5.00000000       0.20186488       0.03818603      -0.17554084
Al      21.26112396      17.15482577       9.06809846       0.00837557      -0.00039007       0.02424459
Al      21.23861989      19.17229520      11.05799019       0.00629798       0.00126291      -0.00989382
Al      23.42810450      17.15805283      11.09324737       0.00863434       0.00275075      -0.03360767
Al      23.41276517      19.18238357       9.02369800       0.00187535       0.00303405       0.04105941
Al      21.20000000      17.15000000      13.10000000      -0.01566211      -0.00168791      -0.51899977