299
Lattice="28.224999999999998 0.0 0.0 0.0 28.224999999999998 0.0 0.0 0.0 20.125" Properties=species:S:1:pos:R:3:forces:R:3 energy=-16469.306585326365 pbc="T T T"
Al       5.00000000       5.00000000       5.00000000       0.32664843       0.32721527       0.33182174
Al       5.00000000       7.02500000       7.02500000      -0.49798474       0.24989492       0.38024271
Al       7.02500000       5.00000000       7.02500000       0.24538715      -0.49761843       0.37496787
Al       7.02500000       7.02500000       5.00000000       0.32707830       0.32831189      -0.58861012
Al       4.97749098       4.97726626       9.04862585      -0.01289492      -0.01094885       0.03259367
Al       4.88325659       7.04823812      11.07930249      -0.00560870       0.00342748      -0.00993642
Al       7.04654329       4.87416782      11.07994492      -0.00027358      -0.00440960      -0.01082471
Al       7.02867512       7.02712520       9.08126583      -0.00283729       0.00148115      -0.00038207
Al       5.00000000       5.00000000      13.10000000      -0.05063720      -0.04548121      -0.52637599
Al       5.00000000       7.02500000      15.12500000      -0.09306353       0.45711795       0.08710057
Al       7.02500000       5.00000000      15.12500000       0.45537692      -0.09325129       0.08653866
Al       7.02500000       7.02500000      13.10000000       0.15250002       0.15669349      -0.66865026
Al       5.00000000       9.05000000       5.00000000      -0.19590298      -0.03611339      -0.17543853
Al       5.00000000      11.07500000       7.02500000      -0.61409187      -0.00716853       0.25238687
Al       7.02500000       9.05000000       7.02500000       0.08060531      -0.04408498       0.55832781
Al       7.02500000      11.07500000       5.00000000       0.33330864      -0.00710130      -0.64315218
Al       4.82137173       9.04401563       9.02707072      -0.00111720       0.00849050       0.01559442
Al       4.79442832      11.06508840      11.09090925       0.00326399       0.00699078      -0.01406122
Al       6.99749863       9.06218061      11.05816275       0.00126281       0.01205794       0.00368999
Al       6.97228371      11.07653465       9.07114654       0.00335195       0.00828334       0.00075594
Al       5.00000000       9.05000000      13.10000000      -0.59286824      -0.02381937      -0.24112476
Al       5.00000000      11.07500000      15.12500000      -0.19853024      -0.00613201       0.17458952
Al       7.02500000       9.05000000      15.12500000       0.33341975      -0.03720757       0.64159483
Al       7.02500000      11.07500000      13.10000000       0.05549790       0.01518628      -0.55530724
Al       5.00000000      13.10000000       5.00000000      -0.20239771       0.00194204      -0.17450171
Al       5.00000000      15.12500000       7.02500000      -0.63997903       0.00763765       0.25218815
Al       7.02500000      13.10000000       7.02500000       0.04725801       0.00370774       0.58124693
Al       7.02500000      15.12500000       5.00000000       0.33302032      -0.00380001      -0.64356929
Al       4.78696492      13.09697002       9.03083481       0.00453071       0.00253816       0.01746749
Al       4.78907842      15.12727069      11.09255954       0.00606871      -0.00479298      -0.01169606
Al       6.95370550      13.09546821      11.05148882       0.00177623       0.00404492       0.00917437
Al       6.95515208      15.12703254       9.07004749       0.00134712      -0.00482231      -0.00202789
Al       5.00000000      13.10000000      13.10000000      -0.63237931      -0.00875260      -0.25599364
Al       5.00000000      15.12500000      15.12500000      -0.19941434      -0.00311381       0.17350406
Al       7.02500000      13.10000000      15.12500000       0.33426728       0.00305115       0.63991545
Al       7.02500000      15.12500000      13.10000000      -0.01762597      -0.00497305      -0.52217913
Al       5.00000000      17.15000000       5.00000000      -0.20180520       0.00596655      -0.17632044
Al       5.00000000      19.17500000       7.02500000      -0.59633135       0.02533104       0.23664771
Al       7.02500000      17.15000000       7.02500000       0.05965958      -0.00848970       0.56573356
Al       7.02500000      19.17500000       5.00000000       0.33287903       0.03863323      -0.64437611
Al       4.79298217      17.16016390       9.03259031       0.00189177      -0.00799969       0.01984809
Al       4.81332974      19.18359204      11.09848727       0.00100863      -0.00946934      -0.01225547
Al       6.96033861      17.15639670      11.05351934       0.00565843      -0.00935945       0.00548246
Al       6.99491285      19.16641290       9.06801715       0.00450218      -0.01128885       0.00545572
Al       5.00000000      17.15000000      13.10000000      -0.62698303       0.00347925      -0.23871075
Al       5.00000000      19.17500000      15.12500000      -0.19431370       0.03502110       0.17416778
Al       7.02500000      17.15000000      15.12500000       0.33509982       0.00543734       0.64014307
Al       7.02500000      19.17500000      13.10000000       0.09387722       0.04250844      -0.56351222
Al       5.00000000      21.20000000       5.00000000      -0.09522606      -0.45539758      -0.08822245
Al       5.00000000      23.22500000       7.02500000      -0.04907065       0.04907065       0.52844526
Al       7.02500000      21.20000000       7.02500000       0.15871893      -0.15871893       0.66636038
Al       7.02500000      23.22500000       5.00000000       0.45539758       0.09522606      -0.08822245
Al       4.88161091      21.17647412       9.04497630      -0.00469261      -0.00228463       0.01479150
Al       4.98091301      23.24408699      11.07499519      -0.01081553       0.01081553      -0.02955643
Al       7.03420978      21.19079022      11.04508298       0.00106100      -0.00106100       0.00352015
Al       7.04852588      23.34338909       9.04497630       0.00228463       0.00469261       0.01479150
Al       5.00000000      21.20000000      13.10000000      -0.48984426      -0.24904509      -0.37546849
Al       5.00000000      23.22500000      15.12500000       0.32846164      -0.32846164      -0.33090963
Al       7.02500000      21.20000000      15.12500000       0.32934648      -0.32934648       0.58816589
Al       7.02500000      23.22500000      13.10000000       0.24904509       0.48984426      -0.37546849
Al       9.05000000       5.00000000       5.00000000      -0.03663792      -0.19644044      -0.17536152
Al       9.05000000       7.02500000       7.02500000      -0.05235150       0.07856658       0.55547130
Al      11.07500000       5.00000000       7.02500000      -0.00430306      -0.62806382       0.23841429
Al      11.07500000       7.02500000       5.00000000      -0.00646192       0.33414994      -0.64307301
Al       9.04257113       4.81353036       9.02590773       0.00489496      -0.00162924       0.01520289
Al       9.05281858       6.98635097      11.05742228       0.00668596       0.00491752       0.00245484
Al      11.06614030       4.79551448      11.09148809       0.00474111       0.00072545      -0.01537882
Al      11.07038487       6.96368777       9.06972473       0.00554726       0.00384919      -0.00112534
Al       9.05000000       5.00000000      13.10000000      -0.02636124      -0.60588805      -0.22851645
Al       9.05000000       7.02500000      15.12500000      -0.03973124       0.33535189       0.64200165
Al      11.07500000       5.00000000      15.12500000      -0.00735052      -0.19985298       0.17668009
Al      11.07500000       7.02500000      13.10000000       0.00539249       0.02647037      -0.53039748
Al       9.05000000       9.05000000       5.00000000      -0.04028231      -0.03913410      -0.70348451
Al       9.05000000      11.07500000       7.02500000      -0.10016759       0.02302414       0.42708705
Al      11.07500000       9.05000000       7.02500000      -0.00855559      -0.09868438       0.41631229
Al      11.07500000      11.07500000       5.00000000      -0.00960708      -0.00911427      -0.70322051
Al       9.05276862       9.05409720       9.05401591       0.00741326       0.01417847       0.00232198
Al       9.05714135      11.09924113      11.07381330       0.00693054       0.00674585       0.00604023
Al      11.07299259       9.02855279      11.07174346       0.00273567       0.01398012       0.00363797
Al      11.08366268      11.08790375       9.06201833       0.00644404       0.01497577      -0.00001464
Al       9.05000000       9.05000000      13.10000000      -0.09377651      -0.07212532      -0.44256262
Al       9.05000000      11.07500000      15.12500000      -0.04175482      -0.00665128       0.70084731
Al      11.07500000       9.05000000      15.12500000      -0.00878243      -0.03906414       0.69991278
Al      11.07500000      11.07500000      13.10000000      -0.01415166       0.02122331      -0.38120885
Al       9.05000000      13.10000000       5.00000000      -0.04210963       0.00114976      -0.70496067
Al       9.05000000      15.12500000       7.02500000      -0.04931148      -0.00328809       0.48161621
Al      11.07500000      13.10000000       7.02500000       0.00838472       0.04319017       0.37388068
Al      11.07500000      15.12500000       5.00000000      -0.00750235      -0.00189132      -0.70406141
Al       9.04077945      13.11127287       9.06107273       0.01330185       0.00441540       0.00100344
Al       9.00479122      15.12513602      11.07528591       0.01288513      -0.00189615       0.00719697
Al      11.14038614      13.17425567      11.09077411       0.00105744      -0.00100367       0.01588185
Al      11.10762744      15.12563062       9.08519193       0.02688765      -0.00198113       0.00884370
Al       9.05000000      13.10000000      13.10000000      -0.10162727       0.02048026      -0.42951997
Al       9.05000000      15.12500000      15.12500000      -0.04127584      -0.00211508       0.69668047
Al      11.07500000      13.10000000      15.12500000      -0.02008465      -0.00663639       0.71618586
Al      11.07500000      15.12500000      13.10000000       0.36578195       0.00683348      -0.49271629
Al       9.05000000      17.15000000       5.00000000      -0.04038429       0.00721273      -0.70544913
Al       9.05000000      19.17500000       7.02500000      -0.06705084       0.06705084       0.46097540
Al      11.07500000      17.15000000       7.02500000       0.01813915      -0.01813915       0.38067001
Al      11.07500000      19.17500000       5.00000000      -0.00721273       0.04038429      -0.70544913
Al       9.04839203      17.13875244       9.06127248       0.01668476      -0.00773525       0.00480196
Al       9.07101902      19.15398098      11.07428581       0.01201965      -0.01201965       0.00396808
Al      11.14536606      17.07963394      11.08974648       0.00114248      -0.00114248       0.01689289
Al      11.08624756      19.17660797       9.06127248       0.00773525      -0.01668476       0.00480196
Al       9.05000000      17.15000000      13.10000000      -0.08502456      -0.00989270      -0.42986466
Al       9.05000000      19.17500000      15.12500000      -0.03851972       0.03851972       0.70185201
Al      11.07500000      17.15000000      15.12500000      -0.01825540       0.01825540       0.71616303
Al      11.07500000      19.17500000      13.10000000       0.00989270       0.08502456      -0.42986466
Al       9.05000000      21.20000000       5.00000000      -0.03863323      -0.33287903      -0.64437611
Al       9.05000000      23.22500000       7.02500000      -0.02533104       0.59633135       0.23664771
Al      11.07500000      21.20000000       7.02500000       0.00848970      -0.05965958       0.56573356
Al      11.07500000      23.22500000       5.00000000      -0.00596655       0.20180520      -0.17632044
Al       9.05858710      21.23008715       9.06801715       0.01128885      -0.00450218       0.00545572
Al       9.04140796      23.41167026      11.09848727       0.00946934      -0.00100863      -0.01225547
Al      11.06860330      21.26466139      11.05351934       0.00935945      -0.00565843       0.00548246
Al      11.06483610      23.43201783       9.03259031       0.00799969      -0.00189177       0.01984809
Al       9.05000000      21.20000000      13.10000000      -0.04250844      -0.09387722      -0.56351222
Al       9.05000000      23.22500000      15.12500000      -0.03502110       0.19431370       0.17416778
Al      11.07500000      21.20000000      15.12500000      -0.00543734      -0.33509982       0.64014307
Al      11.07500000      23.22500000      13.10000000      -0.00347925       0.62698303      -0.23871075
Al      13.10000000       5.00000000       5.00000000       0.00343405      -0.20207389      -0.17554638
Al      13.10000000       7.02500000       7.02500000       0.00495026       0.00796874       0.54269661
Al      15.12500000       5.00000000       7.02500000       0.01012573      -0.63366596       0.25482009
Al      15.12500000       7.02500000       5.00000000      -0.00109566       0.33373050      -0.64262070
Al      13.09776041       4.78948949       9.03167993       0.00438660       0.00264857       0.01489519
Al      13.09803404       6.95824072      11.05257752       0.00379879       0.00121451       0.00601634
Al      15.12685345       4.78963079      11.09326506      -0.00074437       0.00286698      -0.01451185
Al      15.12775561       6.95697957       9.07157145      -0.00065579       0.00034157      -0.00574231
Al      13.10000000       5.00000000      13.10000000      -0.00879943      -0.63008405      -0.25693238
Al      13.10000000       7.02500000      15.12500000       0.00231762       0.33497231       0.64291649
Al      15.12500000       5.00000000      15.12500000      -0.00225262      -0.20144404       0.17555277
Al      15.12500000       7.02500000      13.10000000      -0.00343343       0.01255517      -0.54480140
Al      13.10000000       9.05000000       5.00000000       0.00284803      -0.04199830      -0.70224110
Al      13.10000000      11.07500000       7.02500000      -0.00386495       0.06275545       0.42376965
Al      15.12500000       9.05000000       7.02500000      -0.00107854      -0.11474765       0.41494904
Al      15.12500000      11.07500000       5.00000000      -0.00006345      -0.01038295      -0.70267429
Al      13.09987947       9.02224796       9.05043606       0.00248727       0.01140962      -0.00347799
Al      13.10039156      11.04674732      11.07660683       0.00133470       0.01522243       0.00471886
Al      15.12769698       9.02075732      11.07185500      -0.00138091       0.01112290       0.00376505
Al      15.11277543      11.08357452       9.06087031      -0.00394317       0.01555506      -0.00211008
Al      13.10000000       9.05000000      13.10000000       0.00252388      -0.17985895      -0.35632865
Al      13.10000000      11.07500000      15.12500000       0.00023375      -0.00806150       0.69563350
Al      15.12500000       9.05000000      15.12500000      -0.00245673      -0.04095883       0.70051966
Al      15.12500000      11.07500000      13.10000000      -0.01446476       0.01112170      -0.36922257
Al      13.10000000      13.10000000       5.00000000       0.00153140       0.00316394      -0.70393399
Al      13.10000000      15.12500000       7.02500000      -0.00713286       0.00713286       0.08698531
Al      15.12500000      13.10000000       7.02500000      -0.04224101       0.04224101       0.36312513
Al      15.12500000      15.12500000       5.00000000      -0.00316394      -0.00153140      -0.70393399
Al      13.09812119      13.14172502       9.08624972       0.00177676       0.02325202       0.00539170
Al      15.05042125      13.17457875      11.09143454       0.00134531      -0.00134531       0.01606855
Al      15.08327498      15.12687881       9.08624972      -0.02325202      -0.00177676       0.00539170
Al      13.10000000      13.10000000      13.10000000      -0.01540378       0.39448922      -0.47714470
Al      13.10000000      15.12500000      15.12500000       0.00032174      -0.00032174       0.85448759
Al      15.12500000      13.10000000      15.12500000       0.00660424      -0.00660424       0.71654004
Al      15.12500000      15.12500000      13.10000000      -0.39448922       0.01540378      -0.47714470
Al      13.10000000      17.15000000       5.00000000       0.00189132       0.00750235      -0.70406141
Al      13.10000000      19.17500000       7.02500000       0.00328809       0.04931148       0.48161621
Al      15.12500000      17.15000000       7.02500000      -0.04319017      -0.00838472       0.37388068
Al      15.12500000      19.17500000       5.00000000      -0.00114976       0.04210963      -0.70496067
Al      13.09936938      17.11737256       9.08519193       0.00198113      -0.02688765       0.00884370
Al      13.09986398      19.22020878      11.07528591       0.00189615      -0.01288513       0.00719697
Al      15.05074433      17.08461386      11.09077411       0.00100367      -0.00105744       0.01588185
Al      15.11372713      19.18422055       9.06107273      -0.00441540      -0.01330185       0.00100344
Al      13.10000000      17.15000000      13.10000000      -0.00683348      -0.36578195      -0.49271629
Al      13.10000000      19.17500000      15.12500000       0.00211508       0.04127584       0.69668047
Al      15.12500000      17.15000000      15.12500000       0.00663639       0.02008465       0.71618586
Al      15.12500000      19.17500000      13.10000000      -0.02048026       0.10162727      -0.42951997
Al      13.10000000      21.20000000       5.00000000       0.00380001      -0.33302032      -0.64356929
Al      13.10000000      23.22500000       7.02500000      -0.00763765       0.63997903       0.25218815
Al      15.12500000      21.20000000       7.02500000      -0.00370774      -0.04725801       0.58124693
Al      15.12500000      23.22500000       5.00000000      -0.00194204       0.20239771      -0.17450171
Al      13.09796746      21.26984792       9.07004749       0.00482231      -0.00134712      -0.00202789
Al      13.09772931      23.43592158      11.09255954       0.00479298      -0.00606871      -0.01169606
Al      15.12953179      21.27129450      11.05148882      -0.00404492      -0.00177623       0.00917437
Al      15.12802998      23.43803508       9.03083481      -0.00253816      -0.00453071       0.01746749
Al      13.10000000      21.20000000      13.10000000       0.00497305       0.01762597      -0.52217913
Al      13.10000000      23.22500000      15.12500000       0.00311381       0.19941434       0.17350406
Al      15.12500000      21.20000000      15.12500000      -0.00305115      -0.33426728       0.63991545
Al      15.12500000      23.22500000      13.10000000       0.00875260       0.63237931      -0.25599364
Al      17.15000000       5.00000000       5.00000000       0.00837947      -0.20005024      -0.17560943
Al      17.15000000       7.02500000       7.02500000      -0.00410344       0.04056360       0.54568873
Al      19.17500000       5.00000000       7.02500000       0.02770454      -0.59930724       0.23701812
Al      19.17500000       7.02500000       5.00000000       0.04036719       0.33340537      -0.64121291
Al      17.15894424       4.79458043       9.03343225      -0.00176198       0.00116324       0.01529966
Al      17.15426214       6.96404917      11.05421964      -0.00349545       0.00314858       0.00209262
Al      19.18231113       4.81505657      11.09852850      -0.00389482      -0.00083980      -0.01478862
Al      19.16869255       6.99122650       9.06772352      -0.00554611       0.00205622      -0.00412405
Al      17.15000000       5.00000000      13.10000000       0.00549925      -0.62554207      -0.24211415
Al      17.15000000       7.02500000      15.12500000       0.00702842       0.33462342       0.64252164
Al      19.17500000       5.00000000      15.12500000       0.03666720      -0.19564979       0.17481117
Al      19.17500000       7.02500000      13.10000000       0.05006647       0.07919632      -0.55668495
Al      17.15000000       9.05000000       5.00000000       0.00959131      -0.04145701      -0.70176202
Al      17.15000000      11.07500000       7.02500000      -0.00393880       0.00393880       0.37618968
Al      19.17500000       9.05000000       7.02500000       0.08910518      -0.08910518       0.43787762
Al      19.17500000      11.07500000       5.00000000       0.04145701      -0.00959131      -0.70176202
Al      17.14388347       9.04059003       9.05443424      -0.00197421       0.00965524      -0.00267658
Al      17.12804640      11.09695360      11.07402309      -0.00585943       0.00585943       0.00472406
Al      19.16854591       9.05645409      11.07264108      -0.00765540       0.00765540       0.00075908
Al      19.18440997      11.08111653       9.05443424      -0.00965524       0.00197421      -0.00267658
Al      17.15000000       9.05000000      13.10000000       0.00187852      -0.10566098      -0.40572109
Al      17.15000000      11.07500000      15.12500000       0.00888261      -0.00888261       0.70038514
Al      19.17500000       9.05000000      15.12500000       0.03943281      -0.03943281       0.70278511
Al      19.17500000      11.07500000      13.10000000       0.10566098      -0.00187852      -0.40572109
Al      17.15000000      13.10000000       5.00000000       0.01038295       0.00006345      -0.70267429
Al      17.15000000      15.12500000       7.02500000      -0.06275545       0.00386495       0.42376965
Al      19.17500000      13.10000000       7.02500000       0.11474765       0.00107854       0.41494904
Al      19.17500000      15.12500000       5.00000000       0.04199830      -0.00284803      -0.70224110
Al      17.14142548      13.11222457       9.06087031      -0.01555506       0.00394317      -0.00211008
Al      17.17825268      15.12460844      11.07660683      -0.01522243      -0.00133470       0.00471886
Al      19.20424268      13.09730302      11.07185500      -0.01112290       0.00138091       0.00376505
Al      19.20275204      15.12512053       9.05043606      -0.01140962      -0.00248727      -0.00347799
Al      17.15000000      13.10000000      13.10000000      -0.01112170       0.01446476      -0.36922257
Al      17.15000000      15.12500000      15.12500000       0.00806150      -0.00023375       0.69563350
Al      19.17500000      13.10000000      15.12500000       0.04095883       0.00245673       0.70051966
Al      19.17500000      15.12500000      13.10000000       0.17985895      -0.00252388      -0.35632865
Al      17.15000000      17.15000000       5.00000000       0.00911427       0.00960708      -0.70322051
Al      17.15000000      19.17500000       7.02500000      -0.02302414       0.10016759       0.42708705
Al      19.17500000      17.15000000       7.02500000       0.09868438       0.00855559       0.41631229
Al      19.17500000      19.17500000       5.00000000       0.03913410       0.04028231      -0.70348451
Al      17.13709625      17.14133732       9.06201833      -0.01497577      -0.00644404      -0.00001464
Al      17.12575887      19.16785865      11.07381330      -0.00674585      -0.00693054       0.00604023
Al      19.19644721      17.15200741      11.07174346      -0.01398012      -0.00273567       0.00363797
Al      19.17090280      19.17223138       9.05401591      -0.01417847      -0.00741326       0.00232198
Al      17.15000000      17.15000000      13.10000000      -0.02122331       0.01415166      -0.38120885
Al      17.15000000      19.17500000      15.12500000       0.00665128       0.04175482       0.70084731
Al      19.17500000      17.15000000      15.12500000       0.03906414       0.00878243       0.69991278
Al      19.17500000      19.17500000      13.10000000       0.07212532       0.09377651      -0.44256262
Al      17.15000000      21.20000000       5.00000000       0.00710130      -0.33330864      -0.64315218
Al      17.15000000      23.22500000       7.02500000       0.00716853       0.61409187       0.25238687
Al      19.17500000      21.20000000       7.02500000       0.04408498      -0.08060531       0.55832781
Al      19.17500000      23.22500000       5.00000000       0.03611339       0.19590298      -0.17543853
Al      17.14846535      21.25271629       9.07114654      -0.00828334      -0.00335195       0.00075594
Al      17.15991160      23.43057168      11.09090925      -0.00699078      -0.00326399      -0.01406122
Al      19.16281939      21.22750137      11.05816275      -0.01205794      -0.00126281       0.00368999
Al      19.18098437      23.40362827       9.02707072      -0.00849050       0.00111720       0.01559442
Al      17.15000000      21.20000000      13.10000000      -0.01518628      -0.05549790      -0.55530724
Al      17.15000000      23.22500000      15.12500000       0.00613201       0.19853024       0.17458952
Al      19.17500000      21.20000000      15.12500000       0.03720757      -0.33341975       0.64159483
Al      19.17500000      23.22500000      13.10000000       0.02381937       0.59286824      -0.24112476
Al      21.20000000       5.00000000       5.00000000      -0.45565962      -0.09279177      -0.08577293
Al      21.20000000       7.02500000       7.02500000      -0.15290286       0.15290286       0.66845978
Al      23.22500000       5.00000000       7.02500000       0.04740666      -0.04740666       0.52683006
Al      23.22500000       7.02500000       5.00000000       0.09279177       0.45565962      -0.08577293
Al      21.17793580       4.87858716       9.04558337      -0.00046054      -0.00438339       0.00948433
Al      21.19626953       7.02873047      11.04414322       0.00124177      -0.00124177       0.00255754
Al      23.24738471       4.97761529      11.07670674       0.01141567      -0.01141567      -0.03307893
Al      23.34641284       7.04706420       9.04558337       0.00438339       0.00046054       0.00948433
Al      21.20000000       5.00000000      13.10000000      -0.24782543      -0.49615599      -0.37708621
Al      21.20000000       7.02500000      15.12500000      -0.32796803       0.32796803       0.58804981
Al      23.22500000       5.00000000      15.12500000      -0.32735849       0.32735849      -0.33245399
Al      23.22500000       7.02500000      13.10000000       0.49615599       0.24782543      -0.37708621
Al      21.20000000       9.05000000       5.00000000      -0.33340537      -0.04036719      -0.64121291
Al      21.20000000      11.07500000       7.02500000      -0.04056360       0.00410344       0.54568873
Al      23.22500000       9.05000000       7.02500000       0.59930724      -0.02770454       0.23701812
Al      23.22500000      11.07500000       5.00000000       0.20005024      -0.00837947      -0.17560943
Al      21.23377350       9.05630745       9.06772352      -0.00205622       0.00554611      -0.00412405
Al      21.26095083      11.07073786      11.05421964      -0.00314858       0.00349545       0.00209262
Al      23.40994343       9.04268887      11.09852850       0.00083980       0.00389482      -0.01478862
Al      23.43041957      11.06605576       9.03343225      -0.00116324       0.00176198       0.01529966
Al      21.20000000       9.05000000      13.10000000      -0.07919632      -0.05006647      -0.55668495
Al      21.20000000      11.07500000      15.12500000      -0.33462342      -0.00702842       0.64252164
Al      23.22500000       9.05000000      15.12500000       0.19564979      -0.03666720       0.17481117
Al      23.22500000      11.07500000      13.10000000       0.62554207      -0.00549925      -0.24211415
Al      21.20000000      13.10000000       5.00000000      -0.33373050       0.00109566      -0.64262070
Al      21.20000000      15.12500000       7.02500000      -0.00796874      -0.00495026       0.54269661
Al      23.22500000      13.10000000       7.02500000       0.63366596      -0.01012573       0.25482009
Al      23.22500000      15.12500000       5.00000000       0.20207389      -0.00343405      -0.17554638
Al      21.26802043      13.09724439       9.07157145      -0.00034157       0.00065579      -0.00574231
Al      21.26675928      15.12696596      11.05257752      -0.00121451      -0.00379879       0.00601634
Al      23.43536921      13.09814655      11.09326506      -0.00286698       0.00074437      -0.01451185
Al      23.43551051      15.12723959       9.03167993      -0.00264857      -0.00438660       0.01489519
Al      21.20000000      13.10000000      13.10000000      -0.01255517       0.00343343      -0.54480140
Al      21.20000000      15.12500000      15.12500000      -0.33497231      -0.00231762       0.64291649
Al      23.22500000      13.10000000      15.12500000       0.20144404       0.00225262       0.17555277
Al      23.22500000      15.12500000      13.10000000       0.63008405       0.00879943      -0.25693238
Al      21.20000000      17.15000000       5.00000000      -0.33414994       0.00646192      -0.64307301
Al      21.20000000      19.17500000       7.02500000      -0.07856658       0.05235150       0.55547130
Al      23.22500000      17.15000000       7.02500000       0.62806382       0.00430306       0.23841429
Al      23.22500000      19.17500000       5.00000000       0.19644044       0.03663792      -0.17536152
Al      21.26131223      17.15461513       9.06972473      -0.00384919      -0.00554726      -0.00112534
Al      21.23864903      19.17218142      11.05742228      -0.00491752      -0.00668596       0.00245484
Al      23.42948552      17.15885970      11.09148809      -0.00072545      -0.00474111      -0.01537882
Al      23.41146964      19.18242887       9.02590773       0.00162924      -0.00489496       0.01520289
Al      21.20000000      17.15000000      13.10000000      -0.02647037      -0.00539249      -0.53039748