299
Lattice="28.224999999999998 0.0 0.0 0.0 28.224999999999998 0.0 0.0 0.0 20.125" Properties=species:S:1:pos:R:3:forces:R:3 energy=-16469.30084964007 pbc="T T T"
Al       5.00000000       5.00000000       5.00000000       0.32539328       0.32510995       0.33448021
Al       5.00000000       7.02500000       7.02500000      -0.50180131       0.24436130       0.37533683
Al       7.02500000       5.00000000       7.02500000       0.24162089      -0.50237145       0.37046096
Al       7.02500000       7.02500000       5.00000000       0.32413060       0.32413981      -0.59136362
Al       4.97754366       4.97731583       9.04661030      -0.01214462      -0.01145304       0.05271510
Al       4.88317091       7.04808759      11.08149093      -0.00679153      -0.00133835      -0.03477355
Al       7.04640870       4.87409491      11.08212883      -0.00280468      -0.00638357      -0.03520865
Al       7.02843339       7.02686091       9.07970007      -0.00760939      -0.00574682       0.02682729
Al       5.00000000       5.00000000      13.10000000      -0.05257833      -0.04891813      -0.52222325
Al       5.00000000       7.02500000      15.12500000      -0.09608736       0.45370039       0.08550575
Al       7.02500000       5.00000000      15.12500000       0.45371708      -0.09692273       0.08433017
Al       7.02500000       7.02500000      13.10000000       0.14667301       0.14773727      -0.66430736
Al       5.00000000       9.05000000       5.00000000      -0.20000717      -0.03653518      -0.17639217
Al       5.00000000      11.07500000       7.02500000      -0.62215575      -0.00784266       0.24141146
Al       7.02500000       9.05000000       7.02500000       0.07257781      -0.04896544       0.55124904
Al       7.02500000      11.07500000       5.00000000       0.33174907      -0.00451002      -0.65050506
Al       4.82118903       9.04389894       9.02503646      -0.00556799       0.00246025       0.04073511
Al       4.79417320      11.06506653      11.09317599      -0.00366904       0.00409873      -0.03858250
Al       6.99722962       9.06193543      11.05984445      -0.00669227       0.00283809      -0.02239477
Al       6.97169277      11.07639495       9.06941307      -0.00255494       0.00626995       0.02732180
Al       5.00000000       9.05000000      13.10000000      -0.59909534      -0.02865527      -0.23330137
Al       5.00000000      11.07500000      15.12500000      -0.20247615      -0.00563956       0.17660062
Al       7.02500000       9.05000000      15.12500000       0.33074806      -0.03862201       0.64719102
Al       7.02500000      11.07500000      13.10000000       0.04670757       0.01319882      -0.54277282
Al       5.00000000      13.10000000       5.00000000      -0.20474073       0.00373234      -0.17646439
Al       5.00000000      15.12500000       7.02500000      -0.64779758       0.01088165       0.23812709
Al       7.02500000      13.10000000       7.02500000       0.03895161       0.00546261       0.56556204
Al       7.02500000      15.12500000       5.00000000       0.33212470      -0.00314907      -0.64994890
Al       4.78670648      13.09711565       9.02859895      -0.00316981       0.00193854       0.04074775
Al       4.78885918      15.12736374      11.09490826      -0.00200260      -0.00167136      -0.03661597
Al       6.95283715      13.09561600      11.05357939      -0.00122114       0.00305489      -0.02024704
Al       6.95428144      15.12719753       9.06810830      -0.00175450      -0.00136830       0.02511316
Al       5.00000000      13.10000000      13.10000000      -0.64188893      -0.00834509      -0.24162771
Al       5.00000000      15.12500000      15.12500000      -0.20267029      -0.00268449       0.17560900
Al       7.02500000      13.10000000      15.12500000       0.33347039       0.00448260       0.64759901
Al       7.02500000      15.12500000      13.10000000      -0.02594032      -0.00219158      -0.50722584
Al       5.00000000      17.15000000       5.00000000      -0.20405843       0.00645312      -0.17676640
Al       5.00000000      19.17500000       7.02500000      -0.60017002       0.03065156       0.23076486
Al       7.02500000      17.15000000       7.02500000       0.05083808      -0.00393899       0.55423975
Al       7.02500000      19.17500000       5.00000000       0.32983108       0.03969353      -0.64789402
Al       4.79285608      17.16035774       9.03050633      -0.00435573      -0.00338051       0.04247621
Al       4.81337214      19.18380051      11.10055523      -0.00405784      -0.00266397      -0.03723477
Al       6.95980002      17.15685173      11.05531085      -0.00053970      -0.00604942      -0.02200327
Al       6.99468460      19.16676786       9.06661328      -0.00450203      -0.00232691       0.02751934
Al       5.00000000      17.15000000      13.10000000      -0.63500184       0.00792384      -0.22896218
Al       5.00000000      19.17500000      15.12500000      -0.19822985       0.03665626       0.17351985
Al       7.02500000      17.15000000      15.12500000       0.33304537       0.00495321       0.64670008
Al       7.02500000      19.17500000      13.10000000       0.08478934       0.04946433      -0.55792529
Al       5.00000000      21.20000000       5.00000000      -0.09704138      -0.45308428      -0.08508454
Al       5.00000000      23.22500000       7.02500000      -0.05006245       0.05006245       0.52665877
Al       7.02500000      21.20000000       7.02500000       0.15206952      -0.15206952       0.66364555
Al       7.02500000      23.22500000       5.00000000       0.45308428       0.09704138      -0.08508454
Al       4.88172598      21.17653767       9.04299196      -0.00611274       0.00179439       0.03803521
Al       4.98111856      23.24388144      11.07702803      -0.01113303       0.01113303      -0.04989200
Al       7.03402189      21.19097811      11.04663227      -0.00543648       0.00543648      -0.02210780
Al       7.04846233      23.34327402       9.04299196      -0.00179439       0.00611274       0.03803521
Al       5.00000000      21.20000000      13.10000000      -0.49251522      -0.24410691      -0.37189097
Al       5.00000000      23.22500000      15.12500000       0.32746568      -0.32746568      -0.33489105
Al       7.02500000      21.20000000      15.12500000       0.32514511      -0.32514511       0.58911674
Al       7.02500000      23.22500000      13.10000000       0.24410691       0.49251522      -0.37189097
Al       9.05000000       5.00000000       5.00000000      -0.03662003      -0.20073646      -0.17534009
Al       9.05000000       7.02500000       7.02500000      -0.05535294       0.06881245       0.54937547
Al      11.07500000       5.00000000       7.02500000      -0.00563602      -0.63571213       0.22950648
Al      11.07500000       7.02500000       5.00000000      -0.00435735       0.33186190      -0.64941274
Al       9.04241947       4.81338969       9.02390927       0.00098451      -0.00627898       0.04078184
Al       9.05261354       6.98606584      11.05908639       0.00048904      -0.00528079      -0.02270043
Al      11.06610197       4.79534794      11.09375852       0.00284312      -0.00549192      -0.03873177
Al      11.07022486       6.96311998       9.06810376       0.00445919      -0.00320753       0.02631847
Al       9.05000000       5.00000000      13.10000000      -0.02863406      -0.61174004      -0.22133466
Al       9.05000000       7.02500000      15.12500000      -0.03840818       0.33082766       0.64632931
Al      11.07500000       5.00000000      15.12500000      -0.00572803      -0.20247395       0.17646781
Al      11.07500000       7.02500000      13.10000000       0.00575778       0.01587744      -0.51826207
Al       9.05000000       9.05000000       5.00000000      -0.03789361      -0.03774997      -0.71269654
Al       9.05000000      11.07500000       7.02500000      -0.10180772       0.02325303       0.41031646
Al      11.07500000       9.05000000       7.02500000      -0.00783862      -0.10215843       0.40075021
Al      11.07500000      11.07500000       5.00000000      -0.00482516      -0.00440590      -0.71390789
Al       9.05235422       9.05366946       9.05251008       0.00325100       0.00665502       0.02691726
Al       9.05661262      11.09880307      11.07576893       0.00508674       0.00783473      -0.02123868
Al      11.07262416       9.02800570      11.07369665       0.00563788       0.00859020      -0.02253377
Al      11.08336241      11.08758970       9.06015772       0.00851191       0.01426904       0.02671958
Al       9.05000000       9.05000000      13.10000000      -0.09626176      -0.07870534      -0.42972092
Al       9.05000000      11.07500000      15.12500000      -0.03689390      -0.00392754       0.71113647
Al      11.07500000       9.05000000      15.12500000      -0.00392220      -0.03714881       0.70900693
Al      11.07500000      11.07500000      13.10000000      -0.00912776       0.02356965      -0.35913786
Al       9.05000000      13.10000000       5.00000000      -0.03773093       0.00377931      -0.71503651
Al       9.05000000      15.12500000       7.02500000      -0.05117868      -0.00095152       0.46160103
Al      11.07500000      13.10000000       7.02500000       0.01142387       0.04501861       0.34858427
Al      11.07500000      15.12500000       5.00000000      -0.00275111      -0.00318895      -0.71426432
Al       9.04024569      13.11143283       9.05929499       0.00932049       0.00283848       0.02667276
Al       9.00426260      15.12532292      11.07720414       0.00983757       0.00044466      -0.01943987
Al      11.14001409      13.17428763      11.09297120       0.00721872      -0.00054543      -0.01119418
Al      11.10714328      15.12573944       9.08330602       0.02576591      -0.00040814       0.03152130
Al       9.05000000      13.10000000      13.10000000      -0.09983373       0.02220891      -0.40967647
Al       9.05000000      15.12500000      15.12500000      -0.03483476      -0.00304963       0.70616890
Al      11.07500000      13.10000000      15.12500000      -0.01172541      -0.00347284       0.72464146
Al      11.07500000      15.12500000      13.10000000       0.37368140       0.00616406      -0.46741244
Al       9.05000000      17.15000000       5.00000000      -0.03795271       0.00548347      -0.71452526
Al       9.05000000      19.17500000       7.02500000      -0.07330851       0.07330851       0.44936474
Al      11.07500000      17.15000000       7.02500000       0.01789389      -0.01789389       0.35863765
Al      11.07500000      19.17500000       5.00000000      -0.00548347       0.03795271      -0.71452526
Al       9.04779314      17.13938906       9.05957026       0.01111459      -0.00733416       0.02869524
Al       9.07045201      19.15454799      11.07585057       0.00594254      -0.00594254      -0.02029161
Al      11.14489817      17.08010183      11.09187552       0.00321673      -0.00321673      -0.01125600
Al      11.08561094      19.17720686       9.05957026       0.00733416      -0.01111459       0.02869524
Al       9.05000000      17.15000000      13.10000000      -0.08650711      -0.00807246      -0.41412412
Al       9.05000000      19.17500000      15.12500000      -0.03744130       0.03744130       0.71006750
Al      11.07500000      17.15000000      15.12500000      -0.01237266       0.01237266       0.72520545
Al      11.07500000      19.17500000      13.10000000       0.00807246       0.08650711      -0.41412412
Al       9.05000000      21.20000000       5.00000000      -0.03969353      -0.32983108      -0.64789402
Al       9.05000000      23.22500000       7.02500000      -0.03065156       0.60017002       0.23076486
Al      11.07500000      21.20000000       7.02500000       0.00393899      -0.05083808       0.55423975
Al      11.07500000      23.22500000       5.00000000      -0.00645312       0.20405843      -0.17676640
Al       9.05823214      21.23031540       9.06661328       0.00232691       0.00450203       0.02751934
Al       9.04119949      23.41162786      11.10055523       0.00266397       0.00405784      -0.03723477
Al      11.06814827      21.26519998      11.05531085       0.00604942       0.00053970      -0.02200327
Al      11.06464226      23.43214392       9.03050633       0.00338051       0.00435573       0.04247621
Al       9.05000000      21.20000000      13.10000000      -0.04946433      -0.08478934      -0.55792529
Al       9.05000000      23.22500000      15.12500000      -0.03665626       0.19822985       0.17351985
Al      11.07500000      21.20000000      15.12500000      -0.00495321      -0.33304537       0.64670008
Al      11.07500000      23.22500000      13.10000000      -0.00792384       0.63500184      -0.22896218
Al      13.10000000       5.00000000       5.00000000       0.00333190      -0.20457486      -0.17684503
Al      13.10000000       7.02500000       7.02500000       0.00405509      -0.00094991       0.52927939
Al      15.12500000       5.00000000       7.02500000       0.00936494      -0.64180575       0.24295294
Al      15.12500000       7.02500000       5.00000000      -0.00356281       0.33241383      -0.64952102
Al      13.09784525       4.78931811       9.02952065       0.00258386      -0.00502184       0.04013118
Al      13.09817800       6.95741243      11.05468229       0.00200650      -0.00286610      -0.02037492
Al      15.12687817       4.78952218      11.09568478       0.00002313      -0.00442788      -0.03720883
Al      15.12776402       6.95617921       9.06979208       0.00043161      -0.00377214       0.02361295
Al      13.10000000       5.00000000      13.10000000      -0.00909981      -0.63690018      -0.24291630
Al      13.10000000       7.02500000      15.12500000       0.00418608       0.33336607       0.64770408
Al      15.12500000       5.00000000      15.12500000      -0.00301886      -0.20251175       0.17550833
Al      15.12500000       7.02500000      13.10000000      -0.00300057       0.00396202      -0.52848378
Al      13.10000000       9.05000000       5.00000000       0.00384176      -0.03791967      -0.71202552
Al      13.10000000      11.07500000       7.02500000      -0.00255059       0.06531936       0.39950476
Al      15.12500000       9.05000000       7.02500000      -0.00248928      -0.11631159       0.39711094
Al      15.12500000      11.07500000       5.00000000      -0.00320740      -0.00448303      -0.71297318
Al      13.10000151       9.02170425       9.04875329       0.00077641       0.00687938       0.02425430
Al      13.10055515      11.04638636      11.07875537       0.00059441       0.01738168      -0.01926218
Al      15.12781900       9.02021803      11.07387882      -0.00036735       0.00681032      -0.02070409
Al      15.11281398      11.08320143       9.05905206      -0.00242732       0.01677243       0.02455113
Al      13.10000000       9.05000000      13.10000000       0.00455614      -0.18250227      -0.33597766
Al      13.10000000      11.07500000      15.12500000       0.00398168      -0.00180369       0.70376136
Al      15.12500000       9.05000000      15.12500000      -0.00345942      -0.03722121       0.70843414
Al      15.12500000      11.07500000      13.10000000      -0.01517178       0.01476751      -0.34303787
Al      13.10000000      13.10000000       5.00000000       0.00372096       0.00586010      -0.71346769
Al      13.10000000      15.12500000       7.02500000      -0.00572695       0.00572695       0.05926210
Al      15.12500000      13.10000000       7.02500000      -0.04411351       0.04411351       0.33582490
Al      15.12500000      15.12500000       5.00000000      -0.00586010      -0.00372096      -0.71346769
Al      13.09813482      13.14162089       9.08432283       0.00243013       0.01969804       0.02942683
Al      15.05062083      13.17437917      11.09374129      -0.00070310       0.00070310      -0.00929518
Al      15.08337911      15.12686518       9.08432283      -0.01969804      -0.00243013       0.02942683
Al      13.10000000      13.10000000      13.10000000      -0.01175988       0.39901750      -0.44835465
Al      13.10000000      15.12500000      15.12500000       0.00376080      -0.00376080       0.86122936
Al      15.12500000      13.10000000      15.12500000       0.00371631      -0.00371631       0.72286554
Al      15.12500000      15.12500000      13.10000000      -0.39901750       0.01175988      -0.44835465
Al      13.10000000      17.15000000       5.00000000       0.00318895       0.00275111      -0.71426432
Al      13.10000000      19.17500000       7.02500000       0.00095152       0.05117868       0.46160103
Al      15.12500000      17.15000000       7.02500000      -0.04501861      -0.01142387       0.34858427
Al      15.12500000      19.17500000       5.00000000      -0.00377931       0.03773093      -0.71503651
Al      13.09926056      17.11785672       9.08330602       0.00040814      -0.02576591       0.03152130
Al      13.09967708      19.22073740      11.07720414      -0.00044466      -0.00983757      -0.01943987
Al      15.05071237      17.08498591      11.09297120       0.00054543      -0.00721872      -0.01119418
Al      15.11356717      19.18475431       9.05929499      -0.00283848      -0.00932049       0.02667276
Al      13.10000000      17.15000000      13.10000000      -0.00616406      -0.37368140      -0.46741244
Al      13.10000000      19.17500000      15.12500000       0.00304963       0.03483476       0.70616890
Al      15.12500000      17.15000000      15.12500000       0.00347284       0.01172541       0.72464146
Al      15.12500000      19.17500000      13.10000000      -0.02220891       0.09983373      -0.40967647
Al      13.10000000      21.20000000       5.00000000       0.00314907      -0.33212470      -0.64994890
Al      13.10000000      23.22500000       7.02500000      -0.01088165       0.64779758       0.23812709
Al      15.12500000      21.20000000       7.02500000      -0.00546261      -0.03895161       0.56556204
Al      15.12500000      23.22500000       5.00000000      -0.00373234       0.20474073      -0.17646439
Al      13.09780247      21.27071856       9.06810830       0.00136830       0.00175450       0.02511316
Al      13.09763626      23.43614082      11.09490826       0.00167136       0.00200260      -0.03661597
Al      15.12938400      21.27216285      11.05357939      -0.00305489       0.00122114      -0.02024704
Al      15.12788435      23.43829352       9.02859895      -0.00193854       0.00316981       0.04074775
Al      13.10000000      21.20000000      13.10000000       0.00219158       0.02594032      -0.50722584
Al      13.10000000      23.22500000      15.12500000       0.00268449       0.20267029       0.17560900
Al      15.12500000      21.20000000      15.12500000      -0.00448260      -0.33347039       0.64759901
Al      15.12500000      23.22500000      13.10000000       0.00834509       0.64188893      -0.24162771
Al      17.15000000       5.00000000       5.00000000       0.00634870      -0.20401617      -0.17741026
Al      17.15000000       7.02500000       7.02500000      -0.00484686       0.03139894       0.53567210
Al      19.17500000       5.00000000       7.02500000       0.02994486      -0.60637023       0.23105597
Al      19.17500000       7.02500000       5.00000000       0.03945296       0.32990298      -0.64784731
Al      17.15905405       4.79443127       9.03138999      -0.00064668      -0.00532708       0.04148827
Al      17.15451456       6.96359038      11.05621228      -0.00258043      -0.00329994      -0.02252033
Al      19.18249362       4.81502758      11.10079003      -0.00028104      -0.00487427      -0.03840186
Al      19.16890032       6.99100065       9.06628211       0.00108639      -0.00627573       0.02479452
Al      17.15000000       5.00000000      13.10000000       0.00603706      -0.63139298      -0.23043523
Al      17.15000000       7.02500000      15.12500000       0.00468985       0.33316445       0.64705031
Al      19.17500000       5.00000000      15.12500000       0.03622204      -0.19822654       0.17398270
Al      19.17500000       7.02500000      13.10000000       0.05290602       0.07161077      -0.54706655
Al      17.15000000       9.05000000       5.00000000       0.00510762      -0.03798023      -0.71256556
Al      17.15000000      11.07500000       7.02500000      -0.00645867       0.00645867       0.35630143
Al      19.17500000       9.05000000       7.02500000       0.09242605      -0.09242605       0.42730302
Al      19.17500000      11.07500000       5.00000000       0.03798023      -0.00510762      -0.71256556
Al      17.14434712       9.04006015       9.05281156      -0.00404370       0.00540204       0.02574782
Al      17.12852967      11.09647033      11.07621295      -0.00802186       0.00802186      -0.02007009
Al      19.16897013       9.05602987      11.07453949      -0.00220319       0.00220319      -0.02196696
Al      19.18493985      11.08065288       9.05281156      -0.00540204       0.00404370       0.02574782
Al      17.15000000       9.05000000      13.10000000       0.00206104      -0.10862716      -0.38700993
Al      17.15000000      11.07500000      15.12500000       0.00444170      -0.00444170       0.70885991
Al      19.17500000       9.05000000      15.12500000       0.03750099      -0.03750099       0.70949791
Al      19.17500000      11.07500000      13.10000000       0.10862716      -0.00206104      -0.38700993
Al      17.15000000      13.10000000       5.00000000       0.00448303       0.00320740      -0.71297318
Al      17.15000000      15.12500000       7.02500000      -0.06531936       0.00255059       0.39950476
Al      19.17500000      13.10000000       7.02500000       0.11631159       0.00248928       0.39711094
Al      19.17500000      15.12500000       5.00000000       0.03791967      -0.00384176      -0.71202552
Al      17.14179857      13.11218602       9.05905206      -0.01677243       0.00242732       0.02455113
Al      17.17861364      15.12444485      11.07875537      -0.01738168      -0.00059441      -0.01926218
Al      19.20478197      13.09718100      11.07387882      -0.00681032       0.00036735      -0.02070409
Al      19.20329575      15.12499849       9.04875329      -0.00687938      -0.00077641       0.02425430
Al      17.15000000      13.10000000      13.10000000      -0.01476751       0.01517178      -0.34303787
Al      17.15000000      15.12500000      15.12500000       0.00180369      -0.00398168       0.70376136
Al      19.17500000      13.10000000      15.12500000       0.03722121       0.00345942       0.70843414
Al      19.17500000      15.12500000      13.10000000       0.18250227      -0.00455614      -0.33597766
Al      17.15000000      17.15000000       5.00000000       0.00440590       0.00482516      -0.71390789
Al      17.15000000      19.17500000       7.02500000      -0.02325303       0.10180772       0.41031646
Al      19.17500000      17.15000000       7.02500000       0.10215843       0.00783862       0.40075021
Al      19.17500000      19.17500000       5.00000000       0.03774997       0.03789361      -0.71269654
Al      17.13741030      17.14163759       9.06015772      -0.01426904      -0.00851191       0.02671958
Al      17.12619693      19.16838738      11.07576893      -0.00783473      -0.00508674      -0.02123868
Al      19.19699430      17.15237584      11.07369665      -0.00859020      -0.00563788      -0.02253377
Al      19.17133054      19.17264578       9.05251008      -0.00665502      -0.00325100       0.02691726
Al      17.15000000      17.15000000      13.10000000      -0.02356965       0.00912776      -0.35913786
Al      17.15000000      19.17500000      15.12500000       0.00392754       0.03689390       0.71113647
Al      19.17500000      17.15000000      15.12500000       0.03714881       0.00392220       0.70900693
Al      19.17500000      19.17500000      13.10000000       0.07870534       0.09626176      -0.42972092
Al      17.15000000      21.20000000       5.00000000       0.00451002      -0.33174907      -0.65050506
Al      17.15000000      23.22500000       7.02500000       0.00784266       0.62215575       0.24141146
Al      19.17500000      21.20000000       7.02500000       0.04896544      -0.07257781       0.55124904
Al      19.17500000      23.22500000       5.00000000       0.03653518       0.20000717      -0.17639217
Al      17.14860505      21.25330723       9.06941307      -0.00626995       0.00255494       0.02732180
Al      17.15993347      23.43082680      11.09317599      -0.00409873       0.00366904      -0.03858250
Al      19.16306457      21.22777038      11.05984445      -0.00283809       0.00669227      -0.02239477
Al      19.18110106      23.40381097       9.02503646      -0.00246025       0.00556799       0.04073511
Al      17.15000000      21.20000000      13.10000000      -0.01319882      -0.04670757      -0.54277282
Al      17.15000000      23.22500000      15.12500000       0.00563956       0.20247615       0.17660062
Al      19.17500000      21.20000000      15.12500000       0.03862201      -0.33074806       0.64719102
Al      19.17500000      23.22500000      13.10000000       0.02865527       0.59909534      -0.23330137
Al      21.20000000       5.00000000       5.00000000      -0.45302433      -0.09740404      -0.08546313
Al      21.20000000       7.02500000       7.02500000      -0.14592133       0.14592133       0.66559177
Al      23.22500000       5.00000000       7.02500000       0.05128965      -0.05128965       0.52318151
Al      23.22500000       7.02500000       5.00000000       0.09740404       0.45302433      -0.08546313
Al      21.17808921       4.87852097       9.04352941       0.00222215      -0.00586877       0.03686234
Al      21.19646810       7.02853190      11.04609252       0.00613246      -0.00613246      -0.02329715
Al      23.24728486       4.97771514      11.07887862       0.01107686      -0.01107686      -0.05172968
Al      23.34647903       7.04691079       9.04352941       0.00586877      -0.00222215       0.03686234
Al      21.20000000       5.00000000      13.10000000      -0.24417664      -0.49912930      -0.36982442
Al      21.20000000       7.02500000      15.12500000      -0.32551136       0.32551136       0.58909008
Al      23.22500000       5.00000000      15.12500000      -0.32663252       0.32663252      -0.33544220
Al      23.22500000       7.02500000      13.10000000       0.49912930       0.24417664      -0.36982442
Al      21.20000000       9.05000000       5.00000000      -0.32990298      -0.03945296      -0.64784731
Al      21.20000000      11.07500000       7.02500000      -0.03139894       0.00484686       0.53567210
Al      23.22500000       9.05000000       7.02500000       0.60637023      -0.02994486       0.23105597
Al      23.22500000      11.07500000       5.00000000       0.20401617      -0.00634870      -0.17741026
Al      21.23399935       9.05609968       9.06628211       0.00627573      -0.00108639       0.02479452
Al      21.26140962      11.07048544      11.05621228       0.00329994       0.00258043      -0.02252033
Al      23.40997242       9.04250638      11.10079003       0.00487427       0.00028104      -0.03840186
Al      23.43056873      11.06594595       9.03138999       0.00532708       0.00064668       0.04148827
Al      21.20000000       9.05000000      13.10000000      -0.07161077      -0.05290602      -0.54706655
Al      21.20000000      11.07500000      15.12500000      -0.33316445      -0.00468985       0.64705031
Al      23.22500000       9.05000000      15.12500000       0.19822654      -0.03622204       0.17398270
Al      23.22500000      11.07500000      13.10000000       0.63139298      -0.00603706      -0.23043523
Al      21.20000000      13.10000000       5.00000000      -0.33241383       0.00356281      -0.64952102
Al      21.20000000      15.12500000       7.02500000       0.00094991      -0.00405509       0.52927939
Al      23.22500000      13.10000000       7.02500000       0.64180575      -0.00936494       0.24295294
Al      23.22500000      15.12500000       5.00000000       0.20457486      -0.00333190      -0.17684503
Al      21.26882079      13.09723598       9.06979208       0.00377214      -0.00043161       0.02361295
Al      21.26758757      15.12682200      11.05468229       0.00286610      -0.00200650      -0.02037492
Al      23.43547782      13.09812183      11.09568478       0.00442788      -0.00002313      -0.03720883
Al      23.43568189      15.12715475       9.02952065       0.00502184      -0.00258386       0.04013118
Al      21.20000000      13.10000000      13.10000000      -0.00396202       0.00300057      -0.52848378
Al      21.20000000      15.12500000      15.12500000      -0.33336607      -0.00418608       0.64770408
Al      23.22500000      13.10000000      15.12500000       0.20251175       0.00301886       0.17550833
Al      23.22500000      15.12500000      13.10000000       0.63690018       0.00909981      -0.24291630
Al      21.20000000      17.15000000       5.00000000      -0.33186190       0.00435735      -0.64941274
Al      21.20000000      19.17500000       7.02500000      -0.06881245       0.05535294       0.54937547
Al      23.22500000      17.15000000       7.02500000       0.63571213       0.00563602       0.22950648
Al      23.22500000      19.17500000       5.00000000       0.20073646       0.03662003      -0.17534009
Al      21.26188002      17.15477514       9.06810376       0.00320753      -0.00445919       0.02631847
Al      21.23893416      19.17238646      11.05908639       0.00528079      -0.00048904      -0.02270043
Al      23.42965206      17.15889803      11.09375852       0.00549192      -0.00284312      -0.03873177
Al      23.41161031      19.18258053       9.02390927       0.00627898      -0.00098451       0.04078184
Al      21.20000000      17.15000000      13.10000000      -0.01587744      -0.00575778      -0.51826207