299
Lattice="28.224999999999998 0.0 0.0 0.0 28.224999999999998 0.0 0.0 0.0 20.125" Properties=species:S:1:pos:R:3:forces:R:3 energy=-16469.307862823913 pbc="T T T"
Al       5.00000000       5.00000000       5.00000000       0.33253160       0.33227834       0.34262640
Al       5.00000000       7.02500000       7.02500000      -0.48424270       0.25209161       0.36059719
Al       7.02500000       5.00000000       7.02500000       0.24838068      -0.48437740       0.35572595
Al       7.02500000       7.02500000       5.00000000       0.31932381       0.31959008      -0.55966340
Al       4.97757513       4.97749718       9.04547989      -0.00995510      -0.00937585       0.06977251
Al       4.88289573       7.04778676      11.08070506      -0.00984061      -0.00186063      -0.03858057
Al       7.04587591       4.87396704      11.08137185      -0.00313467      -0.00949636      -0.03937375
Al       7.02793745       7.02661076       9.08196598      -0.00716917      -0.00541530      -0.01286589
Al       5.00000000       5.00000000      13.10000000      -0.05020505      -0.04596314      -0.51394942
Al       5.00000000       7.02500000      15.12500000      -0.09101732       0.45169134       0.06980858
Al       7.02500000       5.00000000      15.12500000       0.45160391      -0.09185133       0.06867536
Al       7.02500000       7.02500000      13.10000000       0.15217970       0.15413699      -0.65492551
Al       5.00000000       9.05000000       5.00000000      -0.19551212      -0.04143460      -0.15564462
Al       5.00000000      11.07500000       7.02500000      -0.60469946      -0.01225230       0.23665778
Al       7.02500000       9.05000000       7.02500000       0.07744930      -0.05278799       0.54904597
Al       7.02500000      11.07500000       5.00000000       0.31976193      -0.01217890      -0.61269835
Al       4.82065866       9.04352766       9.02593132      -0.00407934       0.00532896       0.03776105
Al       4.79350692      11.06495639      11.09258113      -0.00276701       0.00288811      -0.04546536
Al       6.99675592       9.06155033      11.05780647      -0.00815256       0.00683694       0.01132292
Al       6.97126686      11.07612437       9.07174424      -0.00649039       0.00365672      -0.01360282
Al       5.00000000       9.05000000      13.10000000      -0.58429163      -0.03134691      -0.22703588
Al       5.00000000      11.07500000      15.12500000      -0.20407058      -0.01106832       0.15659058
Al       7.02500000       9.05000000      15.12500000       0.32038422      -0.04804661       0.61342268
Al       7.02500000      11.07500000      13.10000000       0.04794735       0.00678817      -0.54899143
Al       5.00000000      13.10000000       5.00000000      -0.20533452       0.00155366      -0.15451264
Al       5.00000000      15.12500000       7.02500000      -0.63222178       0.01261848       0.23412918
Al       7.02500000      13.10000000       7.02500000       0.03937222       0.00152116       0.57032292
Al       7.02500000      15.12500000       5.00000000       0.31781263      -0.00042062      -0.61309719
Al       4.78594089      13.09715681       9.02910586      -0.00087993       0.00037565       0.04306927
Al       4.78807260      15.12739374      11.09441019      -0.00128965      -0.00120635      -0.04511946
Al       6.95254981      13.09551326      11.05130420      -0.00886477       0.00126074       0.01057740
Al       6.95410231      15.12734463       9.07035429      -0.01005071      -0.00135340      -0.01443122
Al       5.00000000      13.10000000      13.10000000      -0.62919756      -0.01081547      -0.24064274
Al       5.00000000      15.12500000      15.12500000      -0.20632113      -0.00085055       0.15587939
Al       7.02500000      13.10000000      15.12500000       0.31864877       0.00110376       0.61322374
Al       7.02500000      15.12500000      13.10000000      -0.02669337      -0.00004177      -0.51553935
Al       5.00000000      17.15000000       5.00000000      -0.20294395       0.01121399      -0.15506013
Al       5.00000000      19.17500000       7.02500000      -0.58287316       0.03256995       0.22124147
Al       7.02500000      17.15000000       7.02500000       0.05228946       0.00181769       0.55536297
Al       7.02500000      19.17500000       5.00000000       0.32079673       0.04835940      -0.61193719
Al       4.79236106      17.16053888       9.03113756      -0.00304411      -0.00295048       0.04302386
Al       4.81298083      19.18427765      11.09974892      -0.00475018      -0.00571796      -0.04079514
Al       6.95951797      17.15716271      11.05296706      -0.00723813      -0.00476847       0.01084296
Al       6.99433193      19.16726206       9.06853343      -0.00610486      -0.00621479      -0.01320490
Al       5.00000000      17.15000000      13.10000000      -0.62124277       0.01189294      -0.22655726
Al       5.00000000      19.17500000      15.12500000      -0.19722888       0.04216553       0.15529459
Al       7.02500000      17.15000000      15.12500000       0.31958826       0.01219086       0.61257783
Al       7.02500000      19.17500000      13.10000000       0.08773322       0.05385615      -0.55784594
Al       5.00000000      21.20000000       5.00000000      -0.08970231      -0.45235938      -0.06823675
Al       5.00000000      23.22500000       7.02500000      -0.04564333       0.04564333       0.51648580
Al       7.02500000      21.20000000       7.02500000       0.15950878      -0.15950878       0.65009015
Al       7.02500000      23.22500000       5.00000000       0.45235938       0.08970231      -0.06823675
Al       4.88171066      21.17687325       9.04383307      -0.00879719       0.00190586       0.03668746
Al       4.98134306      23.24365694      11.07816355      -0.01011319       0.01011319      -0.07060669
Al       7.03374426      21.19125574      11.04449005      -0.00612884       0.00612884       0.00965713
Al       7.04812675      23.34328934       9.04383307      -0.00190586       0.00879719       0.03668746
Al       5.00000000      21.20000000      13.10000000      -0.47854142      -0.24988059      -0.35856869
Al       5.00000000      23.22500000      15.12500000       0.33210752      -0.33210752      -0.34136947
Al       7.02500000      21.20000000      15.12500000       0.31869689      -0.31869689       0.56070559
Al       7.02500000      23.22500000      13.10000000       0.24988059       0.47854142      -0.35856869
Al       9.05000000       5.00000000       5.00000000      -0.04180312      -0.19635126      -0.15476833
Al       9.05000000       7.02500000       7.02500000      -0.06004527       0.07448367       0.54756878
Al      11.07500000       5.00000000       7.02500000      -0.01057754      -0.61785119       0.22566889
Al      11.07500000       7.02500000       5.00000000      -0.01215994       0.32024221      -0.61164459
Al       9.04174402       4.81297340       9.02484434       0.00438479      -0.00464801       0.03786655
Al       9.05185577       6.98577511      11.05708845       0.00542167      -0.00674037       0.01069775
Al      11.06575623       4.79476175      11.09315969       0.00182817      -0.00421436      -0.04557244
Al      11.06965833       6.96286209       9.07052306       0.00336596      -0.00746392      -0.01527921
Al       9.05000000       5.00000000      13.10000000      -0.03222152      -0.59662960      -0.21507743
Al       9.05000000       7.02500000      15.12500000      -0.04808279       0.32056447       0.61257876
Al      11.07500000       5.00000000      15.12500000      -0.01139063      -0.20421426       0.15658398
Al      11.07500000       7.02500000      13.10000000      -0.00138957       0.01799095      -0.52498814
Al       9.05000000       9.05000000       5.00000000      -0.05031727      -0.04986456      -0.67107386
Al       9.05000000      11.07500000       7.02500000      -0.11277968       0.01388678       0.42278841
Al      11.07500000       9.05000000       7.02500000      -0.01715682      -0.11244734       0.41404057
Al      11.07500000      11.07500000       5.00000000      -0.01693859      -0.01659764      -0.67123006
Al       9.05175077       9.05338494       9.05461586       0.00325431       0.00634632      -0.01816561
Al       9.05622506      11.09868653      11.07353627      -0.00106967       0.00100643       0.01476226
Al      11.07209135       9.02781653      11.07150244       0.00122290       0.00282143       0.01321556
Al      11.08284950      11.08734951       9.06248131       0.00042752       0.00717379      -0.01786283
Al       9.05000000       9.05000000      13.10000000      -0.10429132      -0.08584307      -0.44038876
Al       9.05000000      11.07500000      15.12500000      -0.05236285      -0.01404798       0.67202717
Al      11.07500000       9.05000000      15.12500000      -0.01390160      -0.05205424       0.66959104
Al      11.07500000      11.07500000      13.10000000      -0.02242207       0.00900427      -0.37928329
Al       9.05000000      13.10000000       5.00000000      -0.05464196      -0.00077546      -0.67357054
Al       9.05000000      15.12500000       7.02500000      -0.06381994       0.00184578       0.47474307
Al      11.07500000      13.10000000       7.02500000      -0.00083181       0.04005831       0.36821655
Al      11.07500000      15.12500000       5.00000000      -0.01508234       0.00095897      -0.67205497
Al       9.03971970      13.11122873       9.06133274       0.00542979       0.00030924      -0.01536849
Al       9.00399883      15.12549246      11.07503317       0.00129191       0.00104561       0.01199866
Al      11.14008001      13.17447702      11.09034186      -0.00589377      -0.00443008       0.01896561
Al      11.10635009      15.12596241       9.08476029       0.03101706       0.00131264      -0.00254013
Al       9.05000000      13.10000000      13.10000000      -0.11567527       0.01577375      -0.42712805
Al       9.05000000      15.12500000      15.12500000      -0.05408405       0.00021110       0.66955937
Al      11.07500000      13.10000000      15.12500000      -0.02752172      -0.01161936       0.69046257
Al      11.07500000      15.12500000      13.10000000       0.35559558       0.01026225      -0.49107781
Al       9.05000000      17.15000000       5.00000000      -0.05353856       0.01538912      -0.67317384
Al       9.05000000      19.17500000       7.02500000      -0.08111273       0.08111273       0.45404512
Al      11.07500000      17.15000000       7.02500000       0.00818992      -0.00818992       0.37531914
Al      11.07500000      19.17500000       5.00000000      -0.01538912       0.05353856      -0.67317384
Al       9.04736411      17.13978641       9.06160577       0.00847140      -0.00396174      -0.01472559
Al       9.07021509      19.15478491      11.07371909       0.00314453      -0.00314453       0.01606018
Al      11.14490463      17.08009537      11.08916725      -0.00476826       0.00476826       0.02003420
Al      11.08521359      19.17763589       9.06160577       0.00396174      -0.00847140      -0.01472559
Al       9.05000000      17.15000000      13.10000000      -0.10069402       0.00140198      -0.42849821
Al       9.05000000      19.17500000      15.12500000      -0.05027999       0.05027999       0.67296809
Al      11.07500000      17.15000000      15.12500000      -0.02693775       0.02693775       0.69079091
Al      11.07500000      19.17500000      13.10000000      -0.00140198       0.10069402      -0.42849821
Al       9.05000000      21.20000000       5.00000000      -0.04835940      -0.32079673      -0.61193719
Al       9.05000000      23.22500000       7.02500000      -0.03256995       0.58287316       0.22124147
Al      11.07500000      21.20000000       7.02500000      -0.00181769      -0.05228946       0.55536297
Al      11.07500000      23.22500000       5.00000000      -0.01121399       0.20294395      -0.15506013
Al       9.05773794      21.23066807       9.06853343       0.00621479       0.00610486      -0.01320490
Al       9.04072235      23.41201917      11.09974892       0.00571796       0.00475018      -0.04079514
Al      11.06783729      21.26548203      11.05296706       0.00476847       0.00723813       0.01084296
Al      11.06446112      23.43263894       9.03113756       0.00295048       0.00304411       0.04302386
Al       9.05000000      21.20000000      13.10000000      -0.05385615      -0.08773322      -0.55784594
Al       9.05000000      23.22500000      15.12500000      -0.04216553       0.19722888       0.15529459
Al      11.07500000      21.20000000      15.12500000      -0.01219086      -0.31958826       0.61257783
Al      11.07500000      23.22500000      13.10000000      -0.01189294       0.62124277      -0.22655726
Al      13.10000000       5.00000000       5.00000000       0.00081331      -0.20528442      -0.15503703
Al      13.10000000       7.02500000       7.02500000       0.00024750       0.00118920       0.53617030
Al      15.12500000       5.00000000       7.02500000       0.01086626      -0.62594048       0.23996257
Al      15.12500000       7.02500000       5.00000000      -0.00127267       0.31922304      -0.61225981
Al      13.09780161       4.78851502       9.03016233       0.00083258      -0.00144686       0.04214199
Al      13.09794792       6.95718770      11.05245582       0.00024514      -0.00931083       0.00949606
Al      15.12700896       4.78867883      11.09528073      -0.00049105      -0.00279881      -0.04615157
Al      15.12797103       6.95589635       9.07214416      -0.00033438      -0.00937256      -0.01579831
Al      13.10000000       5.00000000      13.10000000      -0.01209074      -0.62437863      -0.24218656
Al      13.10000000       7.02500000      15.12500000       0.00057823       0.31878214       0.61336573
Al      15.12500000       5.00000000      15.12500000      -0.00122311      -0.20646577       0.15594617
Al      15.12500000       7.02500000      13.10000000      -0.00091369       0.00442537      -0.53752258
Al      13.10000000       9.05000000       5.00000000      -0.00036020      -0.05433620      -0.67014099
Al      13.10000000      11.07500000       7.02500000      -0.00816347       0.05187798       0.41833621
Al      15.12500000       9.05000000       7.02500000       0.00077524      -0.12813137       0.41262191
Al      15.12500000      11.07500000       5.00000000       0.00136187      -0.01746694      -0.67128326
Al      13.09969148       9.02155463       9.05099450      -0.00117165      -0.00149565      -0.02010295
Al      13.10026942      11.04643085      11.07645124      -0.00268636       0.00202201       0.01300908
Al      15.12797957       9.01994853      11.07177959       0.00029993       0.00008811       0.01274668
Al      15.11299439      11.08305520       9.06130576      -0.00002178       0.00577320      -0.01884252
Al      13.10000000       9.05000000      13.10000000      -0.00017678      -0.19412391      -0.35486776
Al      13.10000000      11.07500000      15.12500000      -0.00062069      -0.01684503       0.66652129
Al      15.12500000       9.05000000      15.12500000      -0.00031266      -0.05302481       0.66977462
Al      15.12500000      11.07500000      13.10000000      -0.00905690      -0.00092370      -0.36482450
Al      13.10000000      13.10000000       5.00000000      -0.00131857       0.00103686      -0.67243488
Al      13.10000000      15.12500000       7.02500000      -0.01121678       0.01121678       0.08279046
Al      15.12500000      13.10000000       7.02500000      -0.03923869       0.03923869       0.35624503
Al      15.12500000      15.12500000       5.00000000      -0.00103686       0.00131857      -0.67243488
Al      13.09793388      13.14107718       9.08594112      -0.00319213       0.03095398      -0.00620757
Al      15.05031376      13.17468624      11.09103668       0.00506803      -0.00506803       0.02209006
Al      15.08392282      15.12706612       9.08594112      -0.03095398       0.00319213      -0.00620757
Al      13.10000000      13.10000000      13.10000000      -0.01766227       0.38699806      -0.47211676
Al      13.10000000      15.12500000      15.12500000      -0.00076449       0.00076449       0.83228786
Al      15.12500000      13.10000000      15.12500000       0.01181473      -0.01181473       0.68994217
Al      15.12500000      15.12500000      13.10000000      -0.38699806       0.01766227      -0.47211676
Al      13.10000000      17.15000000       5.00000000      -0.00095897       0.01508234      -0.67205497
Al      13.10000000      19.17500000       7.02500000      -0.00184578       0.06381994       0.47474307
Al      15.12500000      17.15000000       7.02500000      -0.04005831       0.00083181       0.36821655
Al      15.12500000      19.17500000       5.00000000       0.00077546       0.05464196      -0.67357054
Al      13.09903759      17.11864991       9.08476029      -0.00131264      -0.03101706      -0.00254013
Al      13.09950754      19.22100117      11.07503317      -0.00104561      -0.00129191       0.01199866
Al      15.05052298      17.08491999      11.09034186       0.00443008       0.00589377       0.01896561
Al      15.11377127      19.18528030       9.06133274      -0.00030924      -0.00542979      -0.01536849
Al      13.10000000      17.15000000      13.10000000      -0.01026225      -0.35559558      -0.49107781
Al      13.10000000      19.17500000      15.12500000      -0.00021110       0.05408405       0.66955937
Al      15.12500000      17.15000000      15.12500000       0.01161936       0.02752172       0.69046257
Al      15.12500000      19.17500000      13.10000000      -0.01577375       0.11567527      -0.42712805
Al      13.10000000      21.20000000       5.00000000       0.00042062      -0.31781263      -0.61309719
Al      13.10000000      23.22500000       7.02500000      -0.01261848       0.63222178       0.23412918
Al      15.12500000      21.20000000       7.02500000      -0.00152116      -0.03937222       0.57032292
Al      15.12500000      23.22500000       5.00000000      -0.00155366       0.20533452      -0.15451264
Al      13.09765537      21.27089769       9.07035429       0.00135340       0.01005071      -0.01443122
Al      13.09760626      23.43692740      11.09441019       0.00120635       0.00128965      -0.04511946
Al      15.12948674      21.27245019      11.05130420      -0.00126074       0.00886477       0.01057740
Al      15.12784319      23.43905911       9.02910586      -0.00037565       0.00087993       0.04306927
Al      13.10000000      21.20000000      13.10000000       0.00004177       0.02669337      -0.51553935
Al      13.10000000      23.22500000      15.12500000       0.00085055       0.20632113       0.15587939
Al      15.12500000      21.20000000      15.12500000      -0.00110376      -0.31864877       0.61322374
Al      15.12500000      23.22500000      13.10000000       0.01081547       0.62919756      -0.24064274
Al      17.15000000       5.00000000       5.00000000       0.01068831      -0.20328861      -0.15604720
Al      17.15000000       7.02500000       7.02500000       0.00013846       0.03469086       0.53891816
Al      19.17500000       5.00000000       7.02500000       0.03193597      -0.58936239       0.22199875
Al      19.17500000       7.02500000       5.00000000       0.04746950       0.32118853      -0.61239087
Al      17.15941861       4.79373329       9.03215182      -0.00149567      -0.00297667       0.04166396
Al      17.15502010       6.96321372      11.05400573      -0.00331642      -0.00791672       0.00899430
Al      19.18312637       4.81442208      11.10013108      -0.00396842      -0.00574445      -0.04157145
Al      19.16955704       6.99056229       9.06839594      -0.00513314      -0.00744367      -0.01714372
Al      17.15000000       5.00000000      13.10000000       0.01043636      -0.61805337      -0.22720584
Al      17.15000000       7.02500000      15.12500000       0.01195698       0.31973357       0.61298060
Al      19.17500000       5.00000000      15.12500000       0.04189175      -0.19740173       0.15586404
Al      19.17500000       7.02500000      13.10000000       0.05760602       0.07433086      -0.54629829
Al      17.15000000       9.05000000       5.00000000       0.01399592      -0.05213300      -0.67024062
Al      17.15000000      11.07500000       7.02500000       0.00461410      -0.00461410       0.37368020
Al      19.17500000       9.05000000       7.02500000       0.09821447      -0.09821447       0.43433167
Al      19.17500000      11.07500000       5.00000000       0.05213300      -0.01399592      -0.67024062
Al      17.14474690       9.03968858       9.05504966      -0.00106038       0.00230713      -0.01916837
Al      17.12865201      11.09634799      11.07383622       0.00158695      -0.00158695       0.01597844
Al      19.16940905       9.05559095      11.07255491      -0.00355613       0.00355613       0.01347309
Al      19.18531142      11.08025310       9.05504966      -0.00230713       0.00106038      -0.01916837
Al      17.15000000       9.05000000      13.10000000       0.00931251      -0.11786174      -0.40304089
Al      17.15000000      11.07500000      15.12500000       0.01545983      -0.01545983       0.66947861
Al      19.17500000       9.05000000      15.12500000       0.04985806      -0.04985806       0.67211830
Al      19.17500000      11.07500000      13.10000000       0.11786174      -0.00931251      -0.40304089
Al      17.15000000      13.10000000       5.00000000       0.01746694      -0.00136187      -0.67128326
Al      17.15000000      15.12500000       7.02500000      -0.05187798       0.00816347       0.41833621
Al      19.17500000      13.10000000       7.02500000       0.12813137      -0.00077524       0.41262191
Al      19.17500000      15.12500000       5.00000000       0.05433620       0.00036020      -0.67014099
Al      17.14194480      13.11200561       9.06130576      -0.00577320       0.00002178      -0.01884252
Al      17.17856915      15.12473058      11.07645124      -0.00202201       0.00268636       0.01300908
Al      19.20505147      13.09702043      11.07177959      -0.00008811      -0.00029993       0.01274668
Al      19.20344537      15.12530852       9.05099450       0.00149565       0.00117165      -0.02010295
Al      17.15000000      13.10000000      13.10000000       0.00092370       0.00905690      -0.36482450
Al      17.15000000      15.12500000      15.12500000       0.01684503       0.00062069       0.66652129
Al      19.17500000      13.10000000      15.12500000       0.05302481       0.00031266       0.66977462
Al      19.17500000      15.12500000      13.10000000       0.19412391       0.00017678      -0.35486776
Al      17.15000000      17.15000000       5.00000000       0.01659764       0.01693859      -0.67123006
Al      17.15000000      19.17500000       7.02500000      -0.01388678       0.11277968       0.42278841
Al      19.17500000      17.15000000       7.02500000       0.11244734       0.01715682       0.41404057
Al      19.17500000      19.17500000       5.00000000       0.04986456       0.05031727      -0.67107386
Al      17.13765049      17.14215050       9.06248131      -0.00717379      -0.00042752      -0.01786283
Al      17.12631347      19.16877494      11.07353627      -0.00100643       0.00106967       0.01476226
Al      19.19718347      17.15290865      11.07150244      -0.00282143      -0.00122290       0.01321556
Al      19.17161506      19.17324923       9.05461586      -0.00634632      -0.00325431      -0.01816561
Al      17.15000000      17.15000000      13.10000000      -0.00900427       0.02242207      -0.37928329
Al      17.15000000      19.17500000      15.12500000       0.01404798       0.05236285       0.67202717
Al      19.17500000      17.15000000      15.12500000       0.05205424       0.01390160       0.66959104
Al      19.17500000      19.17500000      13.10000000       0.08584307       0.10429132      -0.44038876
Al      17.15000000      21.20000000       5.00000000       0.01217890      -0.31976193      -0.61269835
Al      17.15000000      23.22500000       7.02500000       0.01225230       0.60469946       0.23665778
Al      19.17500000      21.20000000       7.02500000       0.05278799      -0.07744930       0.54904597
Al      19.17500000      23.22500000       5.00000000       0.04143460       0.19551212      -0.15564462
Al      17.14887563      21.25373314       9.07174424      -0.00365672       0.00649039      -0.01360282
Al      17.16004361      23.43149308      11.09258113      -0.00288811       0.00276701      -0.04546536
Al      19.16344967      21.22824408      11.05780647      -0.00683694       0.00815256       0.01132292
Al      19.18147234      23.40434134       9.02593132      -0.00532896       0.00407934       0.03776105
Al      17.15000000      21.20000000      13.10000000      -0.00678817      -0.04794735      -0.54899143
Al      17.15000000      23.22500000      15.12500000       0.01106832       0.20407058       0.15659058
Al      19.17500000      21.20000000      15.12500000       0.04804661      -0.32038422       0.61342268
Al      19.17500000      23.22500000      13.10000000       0.03134691       0.58429163      -0.22703588
Al      21.20000000       5.00000000       5.00000000      -0.45203387      -0.09088037      -0.06912804
Al      21.20000000       7.02500000       7.02500000      -0.15292031       0.15292031       0.65338404
Al      23.22500000       5.00000000       7.02500000       0.04746278      -0.04746278       0.51310883
Al      23.22500000       7.02500000       5.00000000       0.09088037       0.45203387      -0.06912804
Al      21.17851419       4.87819013       9.04442692       0.00289492      -0.00856061       0.03565403
Al      21.19687198       7.02812802      11.04398730       0.00769099      -0.00769099       0.00878208
Al      23.24726654       4.97773346      11.08015414       0.01032229      -0.01032229      -0.07199047
Al      23.34680987       7.04648581       9.04442692       0.00856061      -0.00289492       0.03565403
Al      21.20000000       5.00000000      13.10000000      -0.24905067      -0.48542845      -0.35555049
Al      21.20000000       7.02500000      15.12500000      -0.31874995       0.31874995       0.56092198
Al      23.22500000       5.00000000      15.12500000      -0.33157060       0.33157060      -0.34222996
Al      23.22500000       7.02500000      13.10000000       0.48542845       0.24905067      -0.35555049
Al      21.20000000       9.05000000       5.00000000      -0.32118853      -0.04746950      -0.61239087
Al      21.20000000      11.07500000       7.02500000      -0.03469086      -0.00013846       0.53891816
Al      23.22500000       9.05000000       7.02500000       0.58936239      -0.03193597       0.22199875
Al      23.22500000      11.07500000       5.00000000       0.20328861      -0.01068831      -0.15604720
Al      21.23443771       9.05544296       9.06839594       0.00744367       0.00513314      -0.01714372
Al      21.26178628      11.06997990      11.05400573       0.00791672       0.00331642       0.00899430
Al      23.41057792       9.04187363      11.10013108       0.00574445       0.00396842      -0.04157145
Al      23.43126671      11.06558139       9.03215182       0.00297667       0.00149567       0.04166396
Al      21.20000000       9.05000000      13.10000000      -0.07433086      -0.05760602      -0.54629829
Al      21.20000000      11.07500000      15.12500000      -0.31973357      -0.01195698       0.61298060
Al      23.22500000       9.05000000      15.12500000       0.19740173      -0.04189175       0.15586404
Al      23.22500000      11.07500000      13.10000000       0.61805337      -0.01043636      -0.22720584
Al      21.20000000      13.10000000       5.00000000      -0.31922304       0.00127267      -0.61225981
Al      21.20000000      15.12500000       7.02500000      -0.00118920      -0.00024750       0.53617030
Al      23.22500000      13.10000000       7.02500000       0.62594048      -0.01086626       0.23996257
Al      23.22500000      15.12500000       5.00000000       0.20528442      -0.00081331      -0.15503703
Al      21.26910365      13.09702897       9.07214416       0.00937256       0.00033438      -0.01579831
Al      21.26781230      15.12705208      11.05245582       0.00931083      -0.00024514       0.00949606
Al      23.43632117      13.09799104      11.09528073       0.00279881       0.00049105      -0.04615157
Al      23.43648498      15.12719839       9.03016233       0.00144686      -0.00083258       0.04214199
Al      21.20000000      13.10000000      13.10000000      -0.00442537       0.00091369      -0.53752258
Al      21.20000000      15.12500000      15.12500000      -0.31878214      -0.00057823       0.61336573
Al      23.22500000      13.10000000      15.12500000       0.20646577       0.00122311       0.15594617
Al      23.22500000      15.12500000      13.10000000       0.62437863       0.01209074      -0.24218656
Al      21.20000000      17.15000000       5.00000000      -0.32024221       0.01215994      -0.61164459
Al      21.20000000      19.17500000       7.02500000      -0.07448367       0.06004527       0.54756878
Al      23.22500000      17.15000000       7.02500000       0.61785119       0.01057754       0.22566889
Al      23.22500000      19.17500000       5.00000000       0.19635126       0.04180312      -0.15476833
Al      21.26213791      17.15534167       9.07052306       0.00746392      -0.00336596      -0.01527921
Al      21.23922489      19.17314423      11.05708845       0.00674037      -0.00542167       0.01069775
Al      23.43023825      17.15924377      11.09315969       0.00421436      -0.00182817      -0.04557244
Al      23.41202660      19.18325598       9.02484434       0.00464801      -0.00438479       0.03786655
Al      21.20000000      17.15000000      13.10000000      -0.01799095       0.00138957      -0.52498814