299
Lattice="28.224999999999998 0.0 0.0 0.0 28.224999999999998 0.0 0.0 0.0 20.125" Properties=species:S:1:pos:R:3:forces:R:3 energy=-16469.310088850958 pbc="T T T"
Al       5.00000000       5.00000000       5.00000000       0.33441425       0.33330750       0.34279375
Al       5.00000000       7.02500000       7.02500000      -0.47773149       0.24678660       0.37234682
Al       7.02500000       5.00000000       7.02500000       0.24260840      -0.47870404       0.36774653
Al       7.02500000       7.02500000       5.00000000       0.31182731       0.31269047      -0.55272855
Al       4.97711426       4.97705304       9.05148163      -0.01049594      -0.01072102       0.06083601
Al       4.88272191       7.04812210      11.07748454      -0.01488971      -0.00703267      -0.01828074
Al       7.04615177       4.87377528      11.07805945      -0.00759343      -0.01528715      -0.01857751
Al       7.02788425       7.02664568       9.08265553      -0.01035392      -0.00884670      -0.02865442
Al       5.00000000       5.00000000      13.10000000      -0.04536655      -0.04230460      -0.52412270
Al       5.00000000       7.02500000      15.12500000      -0.09389163       0.44752714       0.06512013
Al       7.02500000       5.00000000      15.12500000       0.44806924      -0.09554905       0.06369787
Al       7.02500000       7.02500000      13.10000000       0.14640526       0.14734581      -0.66826283
Al       5.00000000       9.05000000       5.00000000      -0.19972169      -0.04225569      -0.15218829
Al       5.00000000      11.07500000       7.02500000      -0.60052265      -0.00943166       0.24137830
Al       7.02500000       9.05000000       7.02500000       0.07067729      -0.05444580       0.55795459
Al       7.02500000      11.07500000       5.00000000       0.31663799      -0.00632615      -0.60894048
Al       4.82077953       9.04405422       9.02907878      -0.01099025       0.00013932       0.01770815
Al       4.79383187      11.06527808      11.08902856      -0.01222454       0.00104409      -0.02557782
Al       6.99670299       9.06208935      11.05686519      -0.00930993      -0.00041248       0.02551863
Al       6.97128639      11.07660975       9.07210062      -0.00403361       0.00515746      -0.02733146
Al       5.00000000       9.05000000      13.10000000      -0.58031125      -0.03342400      -0.23624005
Al       5.00000000      11.07500000      15.12500000      -0.20812279      -0.00993719       0.15476939
Al       7.02500000       9.05000000      15.12500000       0.31388109      -0.04930054       0.60961068
Al       7.02500000      11.07500000      13.10000000       0.04421754       0.00971427      -0.55572572
Al       5.00000000      13.10000000       5.00000000      -0.20545322       0.00467479      -0.15141629
Al       5.00000000      15.12500000       7.02500000      -0.62455184       0.01469657       0.23816579
Al       7.02500000      13.10000000       7.02500000       0.04079488       0.00800845       0.57293210
Al       7.02500000      15.12500000       5.00000000       0.31871227       0.00094005      -0.60647508
Al       4.78641456      13.09719356       9.03246276      -0.01005085       0.00307014       0.02056003
Al       4.78861049      15.12711682      11.09097386      -0.01014204       0.00304006      -0.02590945
Al       6.95247329      13.09571651      11.05092190      -0.00165289       0.00529661       0.02144643
Al       6.95390943      15.12707490       9.07070895      -0.00061445       0.00383355      -0.02958644
Al       5.00000000      13.10000000      13.10000000      -0.62497175      -0.00850675      -0.24632691
Al       5.00000000      15.12500000      15.12500000      -0.20825521       0.00030107       0.15342834
Al       7.02500000      13.10000000      15.12500000       0.31877452       0.00505269       0.60965142
Al       7.02500000      15.12500000      13.10000000      -0.02418254       0.00103739      -0.52157878
Al       5.00000000      17.15000000       5.00000000      -0.20296642       0.01239174      -0.15033951
Al       5.00000000      19.17500000       7.02500000      -0.57353933       0.03457284       0.23110367
Al       7.02500000      17.15000000       7.02500000       0.05271531       0.00246827       0.56339703
Al       7.02500000      19.17500000       5.00000000       0.31671064       0.04939921      -0.60366674
Al       4.79252788      17.16003951       9.03461039      -0.00766784       0.00330495       0.02090786
Al       4.81303080      19.18361362      11.09637468      -0.00773450       0.00156349      -0.02308007
Al       6.95963477      17.15655185      11.05250427      -0.00294663      -0.00004240       0.02024902
Al       6.99444986      19.16664430       9.06959239      -0.00495179       0.00066732      -0.03137756
Al       5.00000000      17.15000000      13.10000000      -0.61634217       0.01297740      -0.23538247
Al       5.00000000      19.17500000      15.12500000      -0.20136531       0.04507269       0.15047099
Al       7.02500000      17.15000000      15.12500000       0.31795299       0.01039323       0.60775290
Al       7.02500000      19.17500000      13.10000000       0.08279260       0.05759681      -0.57259372
Al       5.00000000      21.20000000       5.00000000      -0.08925521      -0.44996006      -0.06086974
Al       5.00000000      23.22500000       7.02500000      -0.03819143       0.03819143       0.52662428
Al       7.02500000      21.20000000       7.02500000       0.15602703      -0.15602703       0.66470728
Al       7.02500000      23.22500000       5.00000000       0.44996006       0.08925521      -0.06086974
Al       4.88137542      21.17652852       9.04699560      -0.00883575       0.00543634       0.01534160
Al       4.98079977      23.24420023      11.07209117      -0.00797220       0.00797220      -0.06261778
Al       7.03376116      21.19123884      11.04350325      -0.00859335       0.00859335       0.02396004
Al       7.04847148      23.34362458       9.04699560      -0.00543634       0.00883575       0.01534160
Al       5.00000000      21.20000000      13.10000000      -0.47019453      -0.24484540      -0.37430267
Al       5.00000000      23.22500000      15.12500000       0.33445256      -0.33445256      -0.34296390
Al       7.02500000      21.20000000      15.12500000       0.31156314      -0.31156314       0.55177626
Al       7.02500000      23.22500000      13.10000000       0.24484540       0.47019453      -0.37430267
Al       9.05000000       5.00000000       5.00000000      -0.04494298      -0.20184113      -0.15140292
Al       9.05000000       7.02500000       7.02500000      -0.06539499       0.06822649       0.55683940
Al      11.07500000       5.00000000       7.02500000      -0.01273616      -0.61672089       0.23025727
Al      11.07500000       7.02500000       5.00000000      -0.01188154       0.31655076      -0.60937849
Al       9.04223054       4.81303414       9.02799997      -0.00314266      -0.01278902       0.01867864
Al       9.05228568       6.98578972      11.05600900      -0.00261427      -0.00882370       0.02678593
Al      11.06606633       4.79493856      11.08948694      -0.00350746      -0.01476553      -0.02348376
Al      11.07004576       6.96279132       9.07078798      -0.00219613      -0.00574548      -0.02651319
Al       9.05000000       5.00000000      13.10000000      -0.03483277      -0.59296412      -0.22455166
Al       9.05000000       7.02500000      15.12500000      -0.04964279       0.31326406       0.60841080
Al      11.07500000       5.00000000      15.12500000      -0.01182952      -0.20876917       0.15426476
Al      11.07500000       7.02500000      13.10000000      -0.00154121       0.01325881      -0.53165969
Al       9.05000000       9.05000000       5.00000000      -0.04949430      -0.04574823      -0.66989608
Al       9.05000000      11.07500000       7.02500000      -0.10936325       0.02462467       0.42582342
Al      11.07500000       9.05000000       7.02500000      -0.01516513      -0.10487352       0.41722152
Al      11.07500000      11.07500000       5.00000000      -0.01001992      -0.00298549      -0.66764498
Al       9.05204595       9.05392551       9.05517827      -0.00142807       0.00339475      -0.02922545
Al       9.05639422      11.09914081      11.07298415      -0.00034542       0.00529186       0.02471474
Al      11.07238336       9.02827459      11.07075510       0.00188052       0.00397753       0.02531973
Al      11.08312531      11.08814994       9.06287906       0.00546824       0.01491475      -0.03007772
Al       9.05000000       9.05000000      13.10000000      -0.10539158      -0.08648165      -0.44996078
Al       9.05000000      11.07500000      15.12500000      -0.04532834      -0.00539325       0.67096372
Al      11.07500000       9.05000000      15.12500000      -0.00823306      -0.04500413       0.66892486
Al      11.07500000      11.07500000      13.10000000      -0.01254548       0.02219851      -0.37818595
Al       9.05000000      13.10000000       5.00000000      -0.04639285       0.00662653      -0.66850526
Al       9.05000000      15.12500000       7.02500000      -0.05516890       0.00315192       0.47899225
Al      11.07500000      13.10000000       7.02500000       0.00819289       0.05135103       0.36584332
Al      11.07500000      15.12500000       5.00000000      -0.00628862       0.00024184      -0.66414906
Al       9.04025628      13.11158457       9.06199226       0.00682585       0.00832287      -0.03059447
Al       9.00445264      15.12533594      11.07447848       0.00266874       0.00319870       0.02331517
Al      11.13987509      13.17444976      11.09044516       0.00242540       0.00220335       0.03129106
Al      11.10817027      15.12590494       9.08627604       0.02392247       0.00223403      -0.01931160
Al       9.05000000      13.10000000      13.10000000      -0.10713111       0.02425295      -0.42852330
Al       9.05000000      15.12500000      15.12500000      -0.04157068      -0.00063744       0.66419226
Al      11.07500000      13.10000000      15.12500000      -0.01387896      -0.00227451       0.68284220
Al      11.07500000      15.12500000      13.10000000       0.36480406       0.00836142      -0.48370171
Al       9.05000000      17.15000000       5.00000000      -0.04730469       0.01108485      -0.66709693
Al       9.05000000      19.17500000       7.02500000      -0.08053946       0.08053946       0.46544923
Al      11.07500000      17.15000000       7.02500000       0.01493213      -0.01493213       0.37667684
Al      11.07500000      19.17500000       5.00000000      -0.01108485       0.04730469      -0.66709693
Al       9.04813885      17.13916958       9.06246558       0.00599850      -0.00276098      -0.03074256
Al       9.07070298      19.15429702      11.07311395      -0.00125488       0.00125488       0.02346552
Al      11.14491978      17.08008022      11.08934293      -0.00101153       0.00101153       0.02965291
Al      11.08583042      19.17686115       9.06246558       0.00276098      -0.00599850      -0.03074256
Al       9.05000000      17.15000000      13.10000000      -0.09482121      -0.00394817      -0.43426051
Al       9.05000000      19.17500000      15.12500000      -0.04690564       0.04690564       0.66906851
Al      11.07500000      17.15000000      15.12500000      -0.01594088       0.01594088       0.68386491
Al      11.07500000      19.17500000      13.10000000       0.00394817       0.09482121      -0.43426051
Al       9.05000000      21.20000000       5.00000000      -0.04939921      -0.31671064      -0.60366674
Al       9.05000000      23.22500000       7.02500000      -0.03457284       0.57353933       0.23110367
Al      11.07500000      21.20000000       7.02500000      -0.00246827      -0.05271531       0.56339703
Al      11.07500000      23.22500000       5.00000000      -0.01239174       0.20296642      -0.15033951
Al       9.05835570      21.23055014       9.06959239      -0.00066732       0.00495179      -0.03137756
Al       9.04138638      23.41196920      11.09637468      -0.00156349       0.00773450      -0.02308007
Al      11.06844815      21.26536523      11.05250427       0.00004240       0.00294663       0.02024902
Al      11.06496049      23.43247212       9.03461039      -0.00330495       0.00766784       0.02090786
Al       9.05000000      21.20000000      13.10000000      -0.05759681      -0.08279260      -0.57259372
Al       9.05000000      23.22500000      15.12500000      -0.04507269       0.20136531       0.15047099
Al      11.07500000      21.20000000      15.12500000      -0.01039323      -0.31795299       0.60775290
Al      11.07500000      23.22500000      13.10000000      -0.01297740       0.61634217      -0.23538247
Al      13.10000000       5.00000000       5.00000000      -0.00136734      -0.20949642      -0.15410668
Al      13.10000000       7.02500000       7.02500000      -0.00255417      -0.00122136       0.53686012
Al      15.12500000       5.00000000       7.02500000       0.00702822      -0.62675493       0.24192235
Al      15.12500000       7.02500000       5.00000000      -0.00666375       0.31629646      -0.61198538
Al      13.09798602       4.78889315       9.03332862      -0.00358888      -0.01542162       0.02256441
Al      13.09808832       6.95693867      11.05181559      -0.00283610      -0.00437308       0.02588511
Al      15.12694864       4.78904643      11.09159337      -0.00215826      -0.01636033      -0.02167555
Al      15.12789800       6.95558063       9.07218954      -0.00501807      -0.00466820      -0.02471030
Al      13.10000000       5.00000000      13.10000000      -0.01292587      -0.62168885      -0.24617531
Al      13.10000000       7.02500000      15.12500000       0.00108266       0.31659583       0.61056113
Al      15.12500000       5.00000000      15.12500000      -0.00308658      -0.20984808       0.15450979
Al      15.12500000       7.02500000      13.10000000      -0.00455710       0.00195594      -0.53920283
Al      13.10000000       9.05000000       5.00000000      -0.00153141      -0.04375037      -0.66905553
Al      13.10000000      11.07500000       7.02500000      -0.00872862       0.07076226       0.41710832
Al      15.12500000       9.05000000       7.02500000      -0.00858839      -0.11853978       0.41278767
Al      15.12500000      11.07500000       5.00000000      -0.00831050      -0.00168561      -0.66806473
Al      13.09979321       9.02170194       9.05124743      -0.00376025       0.00630088      -0.02881540
Al      13.10025540      11.04702601      11.07592251      -0.00120481       0.01174344       0.02792200
Al      15.12778919       9.02019732      11.07103022      -0.00603117       0.00527635       0.02795572
Al      15.11269997      11.08369321       9.06157100      -0.01024545       0.01754377      -0.02850928
Al      13.10000000       9.05000000      13.10000000       0.00119882      -0.18441502      -0.35707076
Al      13.10000000      11.07500000      15.12500000       0.00269718       0.00003420       0.66050825
Al      15.12500000       9.05000000      15.12500000      -0.00523937      -0.04322875       0.66857466
Al      15.12500000      11.07500000      13.10000000      -0.01858315       0.01485679      -0.35988236
Al      13.10000000      13.10000000       5.00000000      -0.00032437       0.01047332      -0.66352431
Al      13.10000000      15.12500000       7.02500000      -0.01024061       0.01024061       0.07378971
Al      15.12500000      13.10000000       7.02500000      -0.05211560       0.05211560       0.35159752
Al      15.12500000      15.12500000       5.00000000      -0.01047332       0.00032437      -0.66352431
Al      13.09786576      13.14292959       9.08721831      -0.00144505       0.02686417      -0.02053762
Al      15.05035652      13.17464348      11.09118696      -0.00283389       0.00283389       0.03630656
Al      15.08207041      15.12713424       9.08721831      -0.02686417       0.00144505      -0.02053762
Al      13.10000000      13.10000000      13.10000000      -0.01395728       0.39502878      -0.46157034
Al      13.10000000      15.12500000      15.12500000       0.00276744      -0.00276744       0.82113427
Al      15.12500000      13.10000000      15.12500000       0.00220361      -0.00220361       0.67984510
Al      15.12500000      15.12500000      13.10000000      -0.39502878       0.01395728      -0.46157034
Al      13.10000000      17.15000000       5.00000000      -0.00024184       0.00628862      -0.66414906
Al      13.10000000      19.17500000       7.02500000      -0.00315192       0.05516890       0.47899225
Al      15.12500000      17.15000000       7.02500000      -0.05135103      -0.00819289       0.36584332
Al      15.12500000      19.17500000       5.00000000      -0.00662653       0.04639285      -0.66850526
Al      13.09909506      17.11682973       9.08627604      -0.00223403      -0.02392247      -0.01931160
Al      13.09966406      19.22054736      11.07447848      -0.00319870      -0.00266874       0.02331517
Al      15.05055024      17.08512491      11.09044516      -0.00220335      -0.00242540       0.03129106
Al      15.11341543      19.18474372       9.06199226      -0.00832287      -0.00682585      -0.03059447
Al      13.10000000      17.15000000      13.10000000      -0.00836142      -0.36480406      -0.48370171
Al      13.10000000      19.17500000      15.12500000       0.00063744       0.04157068       0.66419226
Al      15.12500000      17.15000000      15.12500000       0.00227451       0.01387896       0.68284220
Al      15.12500000      19.17500000      13.10000000      -0.02425295       0.10713111      -0.42852330
Al      13.10000000      21.20000000       5.00000000      -0.00094005      -0.31871227      -0.60647508
Al      13.10000000      23.22500000       7.02500000      -0.01469657       0.62455184       0.23816579
Al      15.12500000      21.20000000       7.02500000      -0.00800845      -0.04079488       0.57293210
Al      15.12500000      23.22500000       5.00000000      -0.00467479       0.20545322      -0.15141629
Al      13.09792510      21.27109057       9.07070895      -0.00383355       0.00061445      -0.02958644
Al      13.09788318      23.43638951      11.09097386      -0.00304006       0.01014204      -0.02590945
Al      15.12928349      21.27252671      11.05092190      -0.00529661       0.00165289       0.02144643
Al      15.12780644      23.43858544       9.03246276      -0.00307014       0.01005085       0.02056003
Al      13.10000000      21.20000000      13.10000000      -0.00103739       0.02418254      -0.52157878
Al      13.10000000      23.22500000      15.12500000      -0.00030107       0.20825521       0.15342834
Al      15.12500000      21.20000000      15.12500000      -0.00505269      -0.31877452       0.60965142
Al      15.12500000      23.22500000      13.10000000       0.00850675       0.62497175      -0.24632691
Al      17.15000000       5.00000000       5.00000000       0.00816410      -0.21063985      -0.15665210
Al      17.15000000       7.02500000       7.02500000      -0.00402914       0.02743135       0.54150537
Al      19.17500000       5.00000000       7.02500000       0.03355296      -0.59143732       0.22795160
Al      19.17500000       7.02500000       5.00000000       0.04801590       0.31271184      -0.61302493
Al      17.15924124       4.79399095       9.03531037      -0.00065591      -0.01835333       0.02377597
Al      17.15470729       6.96303190      11.05325270      -0.00346456      -0.00716815       0.02723310
Al      19.18276509       4.81455464      11.09652625       0.00132503      -0.01655139      -0.01739382
Al      19.16926761       6.99044549       9.06878722       0.00096477      -0.01061008      -0.02559814
Al      17.15000000       5.00000000      13.10000000       0.00900979      -0.61691984      -0.23178850
Al      17.15000000       7.02500000      15.12500000       0.00798078       0.31513582       0.61146667
Al      19.17500000       5.00000000      15.12500000       0.04352741      -0.20353378       0.15371036
Al      19.17500000       7.02500000      13.10000000       0.06113871       0.06639069      -0.55394087
Al      17.15000000       9.05000000       5.00000000       0.00498208      -0.04575449      -0.67398361
Al      17.15000000      11.07500000       7.02500000      -0.01005540       0.01005540       0.37188806
Al      19.17500000       9.05000000       7.02500000       0.09903714      -0.09903714       0.43910089
Al      19.17500000      11.07500000       5.00000000       0.04575449      -0.00498208      -0.67398361
Al      17.14453925       9.03988046       9.05524115      -0.00796141       0.00430649      -0.02450400
Al      17.12843106      11.09656894      11.07340105      -0.00831913       0.00831913       0.02986914
Al      19.16921573       9.05578427      11.07165773       0.00016718      -0.00016718       0.03006874
Al      19.18511954      11.08046075       9.05524115      -0.00430649       0.00796141      -0.02450400
Al      17.15000000       9.05000000      13.10000000       0.00223164      -0.11419041      -0.40456706
Al      17.15000000      11.07500000      15.12500000       0.00335578      -0.00335578       0.66827011
Al      19.17500000       9.05000000      15.12500000       0.04763551      -0.04763551       0.67299571
Al      19.17500000      11.07500000      13.10000000       0.11419041      -0.00223164      -0.40456706
Al      17.15000000      13.10000000       5.00000000       0.00168561       0.00831050      -0.66806473
Al      17.15000000      15.12500000       7.02500000      -0.07076226       0.00872862       0.41710832
Al      19.17500000      13.10000000       7.02500000       0.11853978       0.00858839       0.41278767
Al      19.17500000      15.12500000       5.00000000       0.04375037       0.00153141      -0.66905553
Al      17.14130679      13.11230003       9.06157100      -0.01754377       0.01024545      -0.02850928
Al      17.17797399      15.12474460      11.07592251      -0.01174344       0.00120481       0.02792200
Al      19.20480268      13.09721081      11.07103022      -0.00527635       0.00603117       0.02795572
Al      19.20329806      15.12520679       9.05124743      -0.00630088       0.00376025      -0.02881540
Al      17.15000000      13.10000000      13.10000000      -0.01485679       0.01858315      -0.35988236
Al      17.15000000      15.12500000      15.12500000      -0.00003420      -0.00269718       0.66050825
Al      19.17500000      13.10000000      15.12500000       0.04322875       0.00523937       0.66857466
Al      19.17500000      15.12500000      13.10000000       0.18441502      -0.00119882      -0.35707076
Al      17.15000000      17.15000000       5.00000000       0.00298549       0.01001992      -0.66764498
Al      17.15000000      19.17500000       7.02500000      -0.02462467       0.10936325       0.42582342
Al      19.17500000      17.15000000       7.02500000       0.10487352       0.01516513       0.41722152
Al      19.17500000      19.17500000       5.00000000       0.04574823       0.04949430      -0.66989608
Al      17.13685006      17.14187469       9.06287906      -0.01491475      -0.00546824      -0.03007772
Al      17.12585919      19.16860578      11.07298415      -0.00529186       0.00034542       0.02471474
Al      19.19672541      17.15261664      11.07075510      -0.00397753      -0.00188052       0.02531973
Al      19.17107449      19.17295405       9.05517827      -0.00339475       0.00142807      -0.02922545
Al      17.15000000      17.15000000      13.10000000      -0.02219851       0.01254548      -0.37818595
Al      17.15000000      19.17500000      15.12500000       0.00539325       0.04532834       0.67096372
Al      19.17500000      17.15000000      15.12500000       0.04500413       0.00823306       0.66892486
Al      19.17500000      19.17500000      13.10000000       0.08648165       0.10539158      -0.44996078
Al      17.15000000      21.20000000       5.00000000       0.00632615      -0.31663799      -0.60894048
Al      17.15000000      23.22500000       7.02500000       0.00943166       0.60052265       0.24137830
Al      19.17500000      21.20000000       7.02500000       0.05444580      -0.07067729       0.55795459
Al      19.17500000      23.22500000       5.00000000       0.04225569       0.19972169      -0.15218829
Al      17.14839025      21.25371361       9.07210062      -0.00515746       0.00403361      -0.02733146
Al      17.15972192      23.43116813      11.08902856      -0.00104409       0.01222454      -0.02557782
Al      19.16291065      21.22829701      11.05686519       0.00041248       0.00930993       0.02551863
Al      19.18094578      23.40422047       9.02907878      -0.00013932       0.01099025       0.01770815
Al      17.15000000      21.20000000      13.10000000      -0.00971427      -0.04421754      -0.55572572
Al      17.15000000      23.22500000      15.12500000       0.00993719       0.20812279       0.15476939
Al      19.17500000      21.20000000      15.12500000       0.04930054      -0.31388109       0.60961068
Al      19.17500000      23.22500000      13.10000000       0.03342400       0.58031125      -0.23624005
Al      21.20000000       5.00000000       5.00000000      -0.44731293      -0.09760435      -0.06752040
Al      21.20000000       7.02500000       7.02500000      -0.14439190       0.14439190       0.66214271
Al      23.22500000       5.00000000       7.02500000       0.04756992      -0.04756992       0.52140630
Al      23.22500000       7.02500000       5.00000000       0.09760435       0.44731293      -0.06752040
Al      21.17827588       4.87813284       9.04723108       0.00884261      -0.02004281       0.01824147
Al      21.19700771       7.02799229      11.04297939       0.01106036      -0.01106036       0.03017435
Al      23.24764018       4.97735982      11.07379658       0.01379863      -0.01379863      -0.06018021
Al      23.34686716       7.04672412       9.04723108       0.02004281      -0.00884261       0.01824147
Al      21.20000000       5.00000000      13.10000000      -0.24331472      -0.48080503      -0.36631092
Al      21.20000000       7.02500000      15.12500000      -0.31099552       0.31099552       0.55544469
Al      23.22500000       5.00000000      15.12500000      -0.33204118       0.33204118      -0.34124188
Al      23.22500000       7.02500000      13.10000000       0.48080503       0.24331472      -0.36631092
Al      21.20000000       9.05000000       5.00000000      -0.31271184      -0.04801590      -0.61302493
Al      21.20000000      11.07500000       7.02500000      -0.02743135       0.00402914       0.54150537
Al      23.22500000       9.05000000       7.02500000       0.59143732      -0.03355296       0.22795160
Al      23.22500000      11.07500000       5.00000000       0.21063985      -0.00816410      -0.15665210
Al      21.23455451       9.05573239       9.06878722       0.01061008      -0.00096477      -0.02559814
Al      21.26196810      11.07029271      11.05325270       0.00716815       0.00346456       0.02723310
Al      23.41044536       9.04223491      11.09652625       0.01655139      -0.00132503      -0.01739382
Al      23.43100905      11.06575876       9.03531037       0.01835333       0.00065591       0.02377597
Al      21.20000000       9.05000000      13.10000000      -0.06639069      -0.06113871      -0.55394087
Al      21.20000000      11.07500000      15.12500000      -0.31513582      -0.00798078       0.61146667
Al      23.22500000       9.05000000      15.12500000       0.20353378      -0.04352741       0.15371036
Al      23.22500000      11.07500000      13.10000000       0.61691984      -0.00900979      -0.23178850
Al      21.20000000      13.10000000       5.00000000      -0.31629646       0.00666375      -0.61198538
Al      21.20000000      15.12500000       7.02500000       0.00122136       0.00255417       0.53686012
Al      23.22500000      13.10000000       7.02500000       0.62675493      -0.00702822       0.24192235
Al      23.22500000      15.12500000       5.00000000       0.20949642       0.00136734      -0.15410668
Al      21.26941937      13.09710200       9.07218954       0.00466820       0.00501807      -0.02471030
Al      21.26806133      15.12691168      11.05181559       0.00437308       0.00283610       0.02588511
Al      23.43595357      13.09805136      11.09159337       0.01636033       0.00215826      -0.02167555
Al      23.43610685      15.12701398       9.03332862       0.01542162       0.00358888       0.02256441
Al      21.20000000      13.10000000      13.10000000      -0.00195594       0.00455710      -0.53920283
Al      21.20000000      15.12500000      15.12500000      -0.31659583      -0.00108266       0.61056113
Al      23.22500000      13.10000000      15.12500000       0.20984808       0.00308658       0.15450979
Al      23.22500000      15.12500000      13.10000000       0.62168885       0.01292587      -0.24617531
Al      21.20000000      17.15000000       5.00000000      -0.31655076       0.01188154      -0.60937849
Al      21.20000000      19.17500000       7.02500000      -0.06822649       0.06539499       0.55683940
Al      23.22500000      17.15000000       7.02500000       0.61672089       0.01273616       0.23025727
Al      23.22500000      19.17500000       5.00000000       0.20184113       0.04494298      -0.15140292
Al      21.26220868      17.15495424       9.07078798       0.00574548       0.00219613      -0.02651319
Al      21.23921028      19.17271432      11.05600900       0.00882370       0.00261427       0.02678593
Al      23.43006144      17.15893367      11.08948694       0.01476553       0.00350746      -0.02348376
Al      23.41196586      19.18276946       9.02799997       0.01278902       0.00314266       0.01867864
Al      21.20000000      17.15000000      13.10000000      -0.01325881       0.00154121      -0.53165969