299
Lattice="28.224999999999998 0.0 0.0 0.0 28.224999999999998 0.0 0.0 0.0 20.125" Properties=species:S:1:pos:R:3:forces:R:3 energy=-16469.305819339792 pbc="T T T"
Al       5.00000000       5.00000000       5.00000000       0.32709927       0.32768009       0.33246472
Al       5.00000000       7.02500000       7.02500000      -0.49785493       0.24789341       0.37597982
Al       7.02500000       5.00000000       7.02500000       0.24342916      -0.49748834       0.37078053
Al       7.02500000       7.02500000       5.00000000       0.32438850       0.32570691      -0.58736397
Al       4.97737644       4.97713326       9.04807129      -0.01274773      -0.01085510       0.04357922
Al       4.88309352       7.04830875      11.08006877      -0.00569214       0.00289499      -0.01817765
Al       7.04662293       4.87400243      11.08072003      -0.00071689      -0.00454572      -0.01905797
Al       7.02879064       7.02725041       9.08070771      -0.00586095      -0.00173578       0.01027903
Al       5.00000000       5.00000000      13.10000000      -0.05059936      -0.04549483      -0.52263527
Al       5.00000000       7.02500000      15.12500000      -0.09082108       0.45716967       0.08491468
Al       7.02500000       5.00000000      15.12500000       0.45551610      -0.09100776       0.08431696
Al       7.02500000       7.02500000      13.10000000       0.15295017       0.15704095      -0.66233256
Al       5.00000000       9.05000000       5.00000000      -0.19706385      -0.03706930      -0.17455027
Al       5.00000000      11.07500000       7.02500000      -0.61582980      -0.00734842       0.24762293
Al       7.02500000       9.05000000       7.02500000       0.07769326      -0.04637885       0.55435647
Al       7.02500000      11.07500000       5.00000000       0.32950294      -0.00718380      -0.64275455
Al       4.82128523       9.04393996       9.02613033      -0.00369103       0.00774506       0.02905191
Al       4.79427159      11.06471888      11.09168953       0.00225888       0.00909146      -0.02202487
Al       6.99771460       9.06209163      11.05867554      -0.00181245       0.01143104       0.00130185
Al       6.97232289      11.07609257       9.07045049       0.00125314       0.01209420       0.01401215
Al       5.00000000       9.05000000      13.10000000      -0.59001184      -0.02429478      -0.23420633
Al       5.00000000      11.07500000      15.12500000      -0.19645166      -0.00534603       0.17221014
Al       7.02500000       9.05000000      15.12500000       0.33294768      -0.03714597       0.63853303
Al       7.02500000      11.07500000      13.10000000       0.05522881       0.01589015      -0.54882798
Al       5.00000000      13.10000000       5.00000000      -0.20393260       0.00264479      -0.17360047
Al       5.00000000      15.12500000       7.02500000      -0.64148585       0.00867477       0.24833916
Al       7.02500000      13.10000000       7.02500000       0.04345810       0.00429996       0.57917242
Al       7.02500000      15.12500000       5.00000000       0.32905970      -0.00267251      -0.64257963
Al       4.78667621      13.09671476       9.02997381       0.00221102       0.00381859       0.03194292
Al       4.78877050      15.12741366      11.09318927       0.00579925      -0.00419998      -0.01954211
Al       6.95358609      13.09532308      11.05198023       0.00212285       0.00522563       0.00484432
Al       6.95499543      15.12705625       9.06943084       0.00090414      -0.00314140       0.01192340
Al       5.00000000      13.10000000      13.10000000      -0.63018481      -0.00793402      -0.24984533
Al       5.00000000      15.12500000      15.12500000      -0.19692294      -0.00276780       0.17077194
Al       7.02500000      13.10000000      15.12500000       0.33375832       0.00396792       0.63635280
Al       7.02500000      15.12500000      13.10000000      -0.01798408      -0.00395570      -0.51696040
Al       5.00000000      17.15000000       5.00000000      -0.20245384       0.00695443      -0.17491975
Al       5.00000000      19.17500000       7.02500000      -0.59517643       0.02765094       0.23235427
Al       7.02500000      17.15000000       7.02500000       0.05656065      -0.00639748       0.56359707
Al       7.02500000      19.17500000       5.00000000       0.32977137       0.04096077      -0.64257641
Al       4.79275977      17.16049100       9.03163628       0.00044935      -0.00830045       0.03389839
Al       4.81319412      19.18366189      11.09923621       0.00125203      -0.00845898      -0.02003434
Al       6.96041311      17.15674986      11.05401076       0.00437337      -0.01125268       0.00204160
Al       6.99512133      19.16652787       9.06749644       0.00040843      -0.00928639       0.01487903
Al       5.00000000      17.15000000      13.10000000      -0.62396962       0.00422928      -0.23277138
Al       5.00000000      19.17500000      15.12500000      -0.19127145       0.03545289       0.17104874
Al       7.02500000      17.15000000      15.12500000       0.33474257       0.00580503       0.63640237
Al       7.02500000      19.17500000      13.10000000       0.09428971       0.04390748      -0.55804940
Al       5.00000000      21.20000000       5.00000000      -0.09413890      -0.45425570      -0.08618050
Al       5.00000000      23.22500000       7.02500000      -0.04980750       0.04980750       0.52629212
Al       7.02500000      21.20000000       7.02500000       0.15736626      -0.15736626       0.66327759
Al       7.02500000      23.22500000       5.00000000       0.45425570       0.09413890      -0.08618050
Al       4.88137483      21.17645893       9.04406394      -0.00428959      -0.00165448       0.02758155
Al       4.98074802      23.24425198      11.07542054      -0.00873652       0.00873652      -0.03734316
Al       7.03437893      21.19062107      11.04548675      -0.00134392       0.00134392      -0.00003507
Al       7.04854107      23.34362517       9.04406394       0.00165448       0.00428959       0.02758155
Al       5.00000000      21.20000000      13.10000000      -0.48551984      -0.24883995      -0.37056144
Al       5.00000000      23.22500000      15.12500000       0.33154592      -0.33154592      -0.33299432
Al       7.02500000      21.20000000      15.12500000       0.32909608      -0.32909608       0.58392075
Al       7.02500000      23.22500000      13.10000000       0.24883995       0.48551984      -0.37056144
Al       9.05000000       5.00000000       5.00000000      -0.03771928      -0.19765497      -0.17448936
Al       9.05000000       7.02500000       7.02500000      -0.05484361       0.07567547       0.55159320
Al      11.07500000       5.00000000       7.02500000      -0.00455908      -0.62994636       0.23386463
Al      11.07500000       7.02500000       5.00000000      -0.00674958       0.33036813      -0.64275807
Al       9.04251748       4.81345267       9.02497040       0.00412465      -0.00415600       0.02880116
Al       9.05269965       6.98658046      11.05794785       0.00635704       0.00148329       0.00000788
Al      11.06576649       4.79537308      11.09230849       0.00714423      -0.00005267      -0.02344270
Al      11.06993802       6.96374364       9.06900339       0.00937664       0.00153907       0.01294175
Al       9.05000000       5.00000000      13.10000000      -0.02669697      -0.60298022      -0.22156527
Al       9.05000000       7.02500000      15.12500000      -0.03950449       0.33478264       0.63887914
Al      11.07500000       5.00000000      15.12500000      -0.00639266      -0.19769264       0.17413806
Al      11.07500000       7.02500000      13.10000000       0.00629965       0.02607110      -0.52387776
Al       9.05000000       9.05000000       5.00000000      -0.04245145      -0.04111002      -0.70393507
Al       9.05000000      11.07500000       7.02500000      -0.10358408       0.02225125       0.42484095
Al      11.07500000       9.05000000       7.02500000      -0.00974186      -0.10192386       0.41400706
Al      11.07500000      11.07500000       5.00000000      -0.01087265      -0.01010814      -0.70455610
Al       9.05256639       9.05389151       9.05341441       0.00720897       0.01392074       0.01344495
Al       9.05703825      11.09881853      11.07442674       0.00587046       0.01072291       0.00292677
Al      11.07250846       9.02845840      11.07236227       0.00801235       0.01325318       0.00058947
Al      11.08331552      11.08755054       9.06125879       0.00856935       0.01655849       0.01663846
Al       9.05000000       9.05000000      13.10000000      -0.09445521      -0.07285292      -0.43495139
Al       9.05000000      11.07500000      15.12500000      -0.04169925      -0.00597581       0.69803151
Al      11.07500000       9.05000000      15.12500000      -0.00792211      -0.03919220       0.69704430
Al      11.07500000      11.07500000      13.10000000      -0.01364545       0.02105636      -0.37400569
Al       9.05000000      13.10000000       5.00000000      -0.04515664       0.00170921      -0.70552068
Al       9.05000000      15.12500000       7.02500000      -0.05338460      -0.00126154       0.48067402
Al      11.07500000      13.10000000       7.02500000       0.00702984       0.04333187       0.37278282
Al      11.07500000      15.12500000       5.00000000      -0.00957766      -0.00076692      -0.70520461
Al       9.04079757      13.11118619       9.06041423       0.00909406       0.00454922       0.01612210
Al       9.00482529      15.12516402      11.07583548       0.00924124      -0.00027558       0.00399509
Al      11.13988808      13.17403948      11.09151400       0.00449394      -0.00078467       0.01089407
Al      11.10731296      15.12561727       9.08458139       0.02694565       0.00056274       0.02448235
Al       9.05000000      13.10000000      13.10000000      -0.10339167       0.02094284      -0.42302955
Al       9.05000000      15.12500000      15.12500000      -0.04168094      -0.00155615       0.69335073
Al      11.07500000      13.10000000      15.12500000      -0.02000656      -0.00626475       0.71325878
Al      11.07500000      15.12500000      13.10000000       0.36639927       0.00763232      -0.48667612
Al       9.05000000      17.15000000       5.00000000      -0.04346209       0.00915668      -0.70551582
Al       9.05000000      19.17500000       7.02500000      -0.07060682       0.07060682       0.45857503
Al      11.07500000      17.15000000       7.02500000       0.01580107      -0.01580107       0.37992094
Al      11.07500000      19.17500000       5.00000000      -0.00915668       0.04346209      -0.70551582
Al       9.04829481      17.13915467       9.06072112       0.01405029      -0.01003127       0.01722035
Al       9.07091987      19.15408013      11.07468589       0.01087321      -0.01087321       0.00425284
Al      11.14501811      17.07998189      11.09044377       0.00271404      -0.00271404       0.01198227
Al      11.08584533      19.17670519       9.06072112       0.01003127      -0.01405029       0.01722035
Al       9.05000000      17.15000000      13.10000000      -0.08664299      -0.00870763      -0.42391341
Al       9.05000000      19.17500000      15.12500000      -0.03899067       0.03899067       0.69832184
Al      11.07500000      17.15000000      15.12500000      -0.01869424       0.01869424       0.71314279
Al      11.07500000      19.17500000      13.10000000       0.00870763       0.08664299      -0.42391341
Al       9.05000000      21.20000000       5.00000000      -0.04096077      -0.32977137      -0.64257641
Al       9.05000000      23.22500000       7.02500000      -0.02765094       0.59517643       0.23235427
Al      11.07500000      21.20000000       7.02500000       0.00639748      -0.05656065       0.56359707
Al      11.07500000      23.22500000       5.00000000      -0.00695443       0.20245384      -0.17491975
Al       9.05847213      21.22987867       9.06749644       0.00928639      -0.00040843       0.01487903
Al       9.04133811      23.41180588      11.09923621       0.00845898      -0.00125203      -0.02003434
Al      11.06825014      21.26458689      11.05401076       0.01125268      -0.00437337       0.00204160
Al      11.06450900      23.43224023       9.03163628       0.00830045      -0.00044935       0.03389839
Al       9.05000000      21.20000000      13.10000000      -0.04390748      -0.09428971      -0.55804940
Al       9.05000000      23.22500000      15.12500000      -0.03545289       0.19127145       0.17104874
Al      11.07500000      21.20000000      15.12500000      -0.00580503      -0.33474257       0.63640237
Al      11.07500000      23.22500000      13.10000000      -0.00422928       0.62396962      -0.23277138
Al      13.10000000       5.00000000       5.00000000       0.00406841      -0.20383253      -0.17466516
Al      13.10000000       7.02500000       7.02500000       0.00538381       0.00383948       0.54062651
Al      15.12500000       5.00000000       7.02500000       0.01092986      -0.63526654       0.25117583
Al      15.12500000       7.02500000       5.00000000      -0.00000486       0.32968856      -0.64158825
Al      13.09750469       4.78923598       9.03080798       0.00580499       0.00048553       0.02995228
Al      13.09787302       6.95815137      11.05311527       0.00544183       0.00137129       0.00147678
Al      15.12692872       4.78932894      11.09393623       0.00034847       0.00321556      -0.02233689
Al      15.12774626       6.95686834       9.07087267       0.00131361      -0.00056456       0.00994360
Al      13.10000000       5.00000000      13.10000000      -0.00777650      -0.62759925      -0.25068851
Al      13.10000000       7.02500000      15.12500000       0.00351686       0.33439718       0.63904896
Al      15.12500000       5.00000000      15.12500000      -0.00165876      -0.19871196       0.17237169
Al      15.12500000       7.02500000      13.10000000      -0.00207992       0.01223749      -0.53949594
Al      13.10000000       9.05000000       5.00000000       0.00318279      -0.04493091      -0.70289094
Al      13.10000000      11.07500000       7.02500000      -0.00415239       0.06162309       0.42271101
Al      15.12500000       9.05000000       7.02500000       0.00068790      -0.11885137       0.41395465
Al      15.12500000      11.07500000       5.00000000       0.00088461      -0.01226492      -0.70386112
Al      13.09974959       9.02220557       9.04969691       0.00315446       0.00826973       0.01343781
Al      13.10031210      11.04651382      11.07722270       0.00109032       0.01627888       0.00171074
Al      15.12765813       9.02080691      11.07244742       0.00115261       0.00792097       0.00018925
Al      15.11271083      11.08331130       9.06015433      -0.00075575       0.01588551       0.01534531
Al      13.10000000       9.05000000      13.10000000       0.00334715      -0.18126874      -0.35022269
Al      13.10000000      11.07500000      15.12500000       0.00103711      -0.00808545       0.69243269
Al      15.12500000       9.05000000      15.12500000      -0.00150602      -0.04149924       0.69665035
Al      15.12500000      11.07500000      13.10000000      -0.01330411       0.01040329      -0.36239397
Al      13.10000000      13.10000000       5.00000000       0.00099179       0.00290144      -0.70548204
Al      13.10000000      15.12500000       7.02500000      -0.00803443       0.00803443       0.08731712
Al      15.12500000      13.10000000       7.02500000      -0.04173474       0.04173474       0.36329163
Al      15.12500000      15.12500000       5.00000000      -0.00290144      -0.00099179      -0.70548204
Al      13.09804337      13.14163750       9.08573394       0.00120499       0.02184332       0.02192038
Al      15.05064335      13.17435665      11.09207049       0.00136695      -0.00136695       0.01222867
Al      15.08336250      15.12695663       9.08573394      -0.02184332      -0.00120499       0.02192038
Al      13.10000000      13.10000000      13.10000000      -0.01497395       0.39495097      -0.47150174
Al      13.10000000      15.12500000      15.12500000       0.00029206      -0.00029206       0.85172542
Al      15.12500000      13.10000000      15.12500000       0.00707206      -0.00707206       0.71322080
Al      15.12500000      15.12500000      13.10000000      -0.39495097       0.01497395      -0.47150174
Al      13.10000000      17.15000000       5.00000000       0.00076692       0.00957766      -0.70520461
Al      13.10000000      19.17500000       7.02500000       0.00126154       0.05338460       0.48067402
Al      15.12500000      17.15000000       7.02500000      -0.04333187      -0.00702984       0.37278282
Al      15.12500000      19.17500000       5.00000000      -0.00170921       0.04515664      -0.70552068
Al      13.09938273      17.11768704       9.08458139      -0.00056274      -0.02694565       0.02448235
Al      13.09983598      19.22017471      11.07583548       0.00027558      -0.00924124       0.00399509
Al      15.05096052      17.08511192      11.09151400       0.00078467      -0.00449394       0.01089407
Al      15.11381381      19.18420243       9.06041423      -0.00454922      -0.00909406       0.01612210
Al      13.10000000      17.15000000      13.10000000      -0.00763232      -0.36639927      -0.48667612
Al      13.10000000      19.17500000      15.12500000       0.00155615       0.04168094       0.69335073
Al      15.12500000      17.15000000      15.12500000       0.00626475       0.02000656       0.71325878
Al      15.12500000      19.17500000      13.10000000      -0.02094284       0.10339167      -0.42302955
Al      13.10000000      21.20000000       5.00000000       0.00267251      -0.32905970      -0.64257963
Al      13.10000000      23.22500000       7.02500000      -0.00867477       0.64148585       0.24833916
Al      15.12500000      21.20000000       7.02500000      -0.00429996      -0.04345810       0.57917242
Al      15.12500000      23.22500000       5.00000000      -0.00264479       0.20393260      -0.17360047
Al      13.09794375      21.27000457       9.06943084       0.00314140      -0.00090414       0.01192340
Al      13.09758634      23.43622950      11.09318927       0.00419998      -0.00579925      -0.01954211
Al      15.12967692      21.27141391      11.05198023      -0.00522563      -0.00212285       0.00484432
Al      15.12828524      23.43832379       9.02997381      -0.00381859      -0.00221102       0.03194292
Al      13.10000000      21.20000000      13.10000000       0.00395570       0.01798408      -0.51696040
Al      13.10000000      23.22500000      15.12500000       0.00276780       0.19692294       0.17077194
Al      15.12500000      21.20000000      15.12500000      -0.00396792      -0.33375832       0.63635280
Al      15.12500000      23.22500000      13.10000000       0.00793402       0.63018481      -0.24984533
Al      17.15000000       5.00000000       5.00000000       0.00933979      -0.20097134      -0.17407901
Al      17.15000000       7.02500000       7.02500000      -0.00210978       0.03707122       0.54360114
Al      19.17500000       5.00000000       7.02500000       0.02993747      -0.59847987       0.23315866
Al      19.17500000       7.02500000       5.00000000       0.04257866       0.33028474      -0.63913373
Al      17.15915425       4.79433770       9.03243125      -0.00178453       0.00032318       0.03043501
Al      17.15452632       6.96410259      11.05476948      -0.00484616       0.00241347      -0.00179716
Al      19.18223172       4.81480293      11.09932086      -0.00247518       0.00069304      -0.02261973
Al      19.16875051       6.99136255       9.06711888      -0.00324150      -0.00133088       0.00783309
Al      17.15000000       5.00000000      13.10000000       0.00601501      -0.62194753      -0.23587627
Al      17.15000000       7.02500000      15.12500000       0.00766812       0.33438580       0.63794886
Al      19.17500000       5.00000000      15.12500000       0.03704812      -0.19219201       0.17107652
Al      19.17500000       7.02500000      13.10000000       0.05153567       0.07973321      -0.55135470
Al      17.15000000       9.05000000       5.00000000       0.01157183      -0.04453292      -0.70163439
Al      17.15000000      11.07500000       7.02500000      -0.00172430       0.00172430       0.37545796
Al      19.17500000       9.05000000       7.02500000       0.09289002      -0.09289002       0.43559605
Al      19.17500000      11.07500000       5.00000000       0.04453292      -0.01157183      -0.70163439
Al      17.14424255       9.04047819       9.05369403      -0.00390939       0.00747521       0.01320057
Al      17.12830810      11.09669190      11.07468508      -0.00620968       0.00620968       0.00076864
Al      19.16865001       9.05634999      11.07310006      -0.00657058       0.00657058       0.00014297
Al      19.18452181      11.08075745       9.05369403      -0.00747521       0.00390939       0.01320057
Al      17.15000000       9.05000000      13.10000000       0.00326747      -0.10720232      -0.39991092
Al      17.15000000      11.07500000      15.12500000       0.00949464      -0.00949464       0.69657634
Al      19.17500000       9.05000000      15.12500000       0.04003292      -0.04003292       0.69823842
Al      19.17500000      11.07500000      13.10000000       0.10720232      -0.00326747      -0.39991092
Al      17.15000000      13.10000000       5.00000000       0.01226492      -0.00088461      -0.70386112
Al      17.15000000      15.12500000       7.02500000      -0.06162309       0.00415239       0.42271101
Al      19.17500000      13.10000000       7.02500000       0.11885137      -0.00068790       0.41395465
Al      19.17500000      15.12500000       5.00000000       0.04493091      -0.00318279      -0.70289094
Al      17.14168870      13.11228917       9.06015433      -0.01588551       0.00075575       0.01534531
Al      17.17848618      15.12468790      11.07722270      -0.01627888      -0.00109032       0.00171074
Al      19.20419309      13.09734187      11.07244742      -0.00792097      -0.00115261       0.00018925
Al      19.20279443      15.12525041       9.04969691      -0.00826973      -0.00315446       0.01343781
Al      17.15000000      13.10000000      13.10000000      -0.01040329       0.01330411      -0.36239397
Al      17.15000000      15.12500000      15.12500000       0.00808545      -0.00103711       0.69243269
Al      19.17500000      13.10000000      15.12500000       0.04149924       0.00150602       0.69665035
Al      19.17500000      15.12500000      13.10000000       0.18126874      -0.00334715      -0.35022269
Al      17.15000000      17.15000000       5.00000000       0.01010814       0.01087265      -0.70455610
Al      17.15000000      19.17500000       7.02500000      -0.02225125       0.10358408       0.42484095
Al      19.17500000      17.15000000       7.02500000       0.10192386       0.00974186       0.41400706
Al      19.17500000      19.17500000       5.00000000       0.04111002       0.04245145      -0.70393507
Al      17.13744946      17.14168448       9.06125879      -0.01655849      -0.00856935       0.01663846
Al      17.12618147      19.16796175      11.07442674      -0.01072291      -0.00587046       0.00292677
Al      19.19654160      17.15249154      11.07236227      -0.01325318      -0.00801235       0.00058947
Al      19.17110849      19.17243361       9.05341441      -0.01392074      -0.00720897       0.01344495
Al      17.15000000      17.15000000      13.10000000      -0.02105636       0.01364545      -0.37400569
Al      17.15000000      19.17500000      15.12500000       0.00597581       0.04169925       0.69803151
Al      19.17500000      17.15000000      15.12500000       0.03919220       0.00792211       0.69704430
Al      19.17500000      19.17500000      13.10000000       0.07285292       0.09445521      -0.43495139
Al      17.15000000      21.20000000       5.00000000       0.00718380      -0.32950294      -0.64275455
Al      17.15000000      23.22500000       7.02500000       0.00734842       0.61582980       0.24762293
Al      19.17500000      21.20000000       7.02500000       0.04637885      -0.07769326       0.55435647
Al      19.17500000      23.22500000       5.00000000       0.03706930       0.19706385      -0.17455027
Al      17.14890743      21.25267711       9.07045049      -0.01209420      -0.00125314       0.01401215
Al      17.16028112      23.43072841      11.09168953      -0.00909146      -0.00225888      -0.02202487
Al      19.16290837      21.22728540      11.05867554      -0.01143104       0.00181245       0.00130185
Al      19.18106004      23.40371477       9.02613033      -0.00774506       0.00369103       0.02905191
Al      17.15000000      21.20000000      13.10000000      -0.01589015      -0.05522881      -0.54882798
Al      17.15000000      23.22500000      15.12500000       0.00534603       0.19645166       0.17221014
Al      19.17500000      21.20000000      15.12500000       0.03714597      -0.33294768       0.63853303
Al      19.17500000      23.22500000      13.10000000       0.02429478       0.59001184      -0.23420633
Al      21.20000000       5.00000000       5.00000000      -0.45443105      -0.09209388      -0.08365748
Al      21.20000000       7.02500000       7.02500000      -0.15131741       0.15131741       0.66629483
Al      23.22500000       5.00000000       7.02500000       0.04807244      -0.04807244       0.52502938
Al      23.22500000       7.02500000       5.00000000       0.09209388       0.45443105      -0.08365748
Al      21.17788888       4.87825926       9.04476102       0.00020878      -0.00333647       0.02290735
Al      21.19619539       7.02880461      11.04453152       0.00260473      -0.00260473      -0.00081642
Al      23.24766140       4.97733860      11.07722494       0.00879997      -0.00879997      -0.04073335
Al      23.34674074       7.04711112       9.04476102       0.00333647      -0.00020878       0.02290735
Al      21.20000000       5.00000000      13.10000000      -0.24798523      -0.49129934      -0.37226567
Al      21.20000000       7.02500000      15.12500000      -0.32801581       0.32801581       0.58293283
Al      23.22500000       5.00000000      15.12500000      -0.33053508       0.33053508      -0.33483628
Al      23.22500000       7.02500000      13.10000000       0.49129934       0.24798523      -0.37226567
Al      21.20000000       9.05000000       5.00000000      -0.33028474      -0.04257866      -0.63913373
Al      21.20000000      11.07500000       7.02500000      -0.03707122       0.00210978       0.54360114
Al      23.22500000       9.05000000       7.02500000       0.59847987      -0.02993747       0.23315866
Al      23.22500000      11.07500000       5.00000000       0.20097134      -0.00933979      -0.17407901
Al      21.23363745       9.05624949       9.06711888       0.00133088       0.00324150       0.00783309
Al      21.26089741      11.07047368      11.05476948      -0.00241347       0.00484616      -0.00179716
Al      23.41019707       9.04276828      11.09932086      -0.00069304       0.00247518      -0.02261973
Al      23.43066230      11.06584575       9.03243125      -0.00032318       0.00178453       0.03043501
Al      21.20000000       9.05000000      13.10000000      -0.07973321      -0.05153567      -0.55135470
Al      21.20000000      11.07500000      15.12500000      -0.33438580      -0.00766812       0.63794886
Al      23.22500000       9.05000000      15.12500000       0.19219201      -0.03704812       0.17107652
Al      23.22500000      11.07500000      13.10000000       0.62194753      -0.00601501      -0.23587627
Al      21.20000000      13.10000000       5.00000000      -0.32968856       0.00000486      -0.64158825
Al      21.20000000      15.12500000       7.02500000      -0.00383948      -0.00538381       0.54062651
Al      23.22500000      13.10000000       7.02500000       0.63526654      -0.01092986       0.25117583
Al      23.22500000      15.12500000       5.00000000       0.20383253      -0.00406841      -0.17466516
Al      21.26813166      13.09725374       9.07087267       0.00056456      -0.00131361       0.00994360
Al      21.26684863      15.12712698      11.05311527      -0.00137129      -0.00544183       0.00147678
Al      23.43567106      13.09807128      11.09393623      -0.00321556      -0.00034847      -0.02233689
Al      23.43576402      15.12749531       9.03080798      -0.00048553      -0.00580499       0.02995228
Al      21.20000000      13.10000000      13.10000000      -0.01223749       0.00207992      -0.53949594
Al      21.20000000      15.12500000      15.12500000      -0.33439718      -0.00351686       0.63904896
Al      23.22500000      13.10000000      15.12500000       0.19871196       0.00165876       0.17237169
Al      23.22500000      15.12500000      13.10000000       0.62759925       0.00777650      -0.25068851
Al      21.20000000      17.15000000       5.00000000      -0.33036813       0.00674958      -0.64275807
Al      21.20000000      19.17500000       7.02500000      -0.07567547       0.05484361       0.55159320
Al      23.22500000      17.15000000       7.02500000       0.62994636       0.00455908       0.23386463
Al      23.22500000      19.17500000       5.00000000       0.19765497       0.03771928      -0.17448936
Al      21.26125636      17.15506198       9.06900339      -0.00153907      -0.00937664       0.01294175
Al      21.23841954      19.17230035      11.05794785      -0.00148329      -0.00635704       0.00000788
Al      23.42962692      17.15923351      11.09230849       0.00005267      -0.00714423      -0.02344270
Al      23.41154733      19.18248252       9.02497040       0.00415600      -0.00412465       0.02880116
Al      21.20000000      17.15000000      13.10000000      -0.02607110      -0.00629965      -0.52387776