299
Lattice="28.224999999999998 0.0 0.0 0.0 28.224999999999998 0.0 0.0 0.0 20.125" Properties=species:S:1:pos:R:3:forces:R:3 energy=-16469.277959584702 pbc="T T T"
Al       5.00000000       5.00000000       5.00000000       0.32890583       0.32849585       0.34496579
Al       5.00000000       7.02500000       7.02500000      -0.49210098       0.24700370       0.35722254
Al       7.02500000       5.00000000       7.02500000       0.24474261      -0.49194044       0.35249779
Al       7.02500000       7.02500000       5.00000000       0.31766765       0.31657328      -0.56312670
Al       4.97736569       4.97720992       9.04302287      -0.00137164      -0.00128122       0.07359126
Al       4.88301848       7.04827404      11.08486646       0.00111861       0.00038734      -0.06356793
Al       7.04643998       4.87393514      11.08550841       0.00162559       0.00222839      -0.06441182
Al       7.02847006       7.02705848       9.07638611       0.00270849       0.00074065       0.04919446
Al       5.00000000       5.00000000      13.10000000      -0.05222628      -0.04785590      -0.50991863
Al       5.00000000       7.02500000      15.12500000      -0.09696190       0.45239859       0.06856805
Al       7.02500000       5.00000000      15.12500000       0.45283068      -0.09764870       0.06727170
Al       7.02500000       7.02500000      13.10000000       0.14997745       0.15055079      -0.65593248
Al       5.00000000       9.05000000       5.00000000      -0.20396929      -0.04298293      -0.15458606
Al       5.00000000      11.07500000       7.02500000      -0.61418209      -0.00959434       0.23012806
Al       7.02500000       9.05000000       7.02500000       0.07714294      -0.04789311       0.54836275
Al       7.02500000      11.07500000       5.00000000       0.32333748      -0.01415924      -0.61758696
Al       4.82107641       9.04424330       9.02145735       0.00066543      -0.00197877       0.06212428
Al       4.79431826      11.06527085      11.09637439      -0.00182904      -0.00047893      -0.05854000
Al       6.99726418       9.06228080      11.06291506       0.00759820      -0.00168626      -0.04518490
Al       6.97144477      11.07649208       9.06619801       0.01258228       0.00007730       0.04233143
Al       5.00000000       9.05000000      13.10000000      -0.59021495      -0.02656894      -0.21974261
Al       5.00000000      11.07500000      15.12500000      -0.21055840      -0.01225347       0.15495699
Al       7.02500000       9.05000000      15.12500000       0.32386323      -0.04589121       0.61701384
Al       7.02500000      11.07500000      13.10000000       0.04919743       0.00864330      -0.54458640
Al       5.00000000      13.10000000       5.00000000      -0.21578238      -0.00015715      -0.15407287
Al       5.00000000      15.12500000       7.02500000      -0.64273595       0.01106924       0.23064046
Al       7.02500000      13.10000000       7.02500000       0.03930547       0.00174720       0.57084773
Al       7.02500000      15.12500000       5.00000000       0.32334857      -0.00000272      -0.61878549
Al       4.78689871      13.09719916       9.02519901      -0.00357468      -0.00050910       0.05679183
Al       4.78915316      15.12726255      11.09800661      -0.00321665      -0.00180944      -0.05539848
Al       6.95240870      13.09574783      11.05647150       0.01673725      -0.00007681      -0.03788914
Al       6.95387954      15.12709895       9.06497766       0.01477974      -0.00091496       0.04112389
Al       5.00000000      13.10000000      13.10000000      -0.63683669      -0.01035243      -0.23525530
Al       5.00000000      15.12500000      15.12500000      -0.21383452      -0.00094800       0.15459337
Al       7.02500000      13.10000000      15.12500000       0.32636724       0.00026501       0.61702659
Al       7.02500000      15.12500000      13.10000000      -0.02319856      -0.00155415      -0.51301982
Al       5.00000000      17.15000000       5.00000000      -0.21214722       0.01174236      -0.15469229
Al       5.00000000      19.17500000       7.02500000      -0.59149630       0.02729172       0.21540308
Al       7.02500000      17.15000000       7.02500000       0.05144107      -0.00031011       0.55454208
Al       7.02500000      19.17500000       5.00000000       0.32286975       0.04609485      -0.61797701
Al       4.79293701      17.16017874       9.02711037      -0.00226581      -0.00139507       0.05853548
Al       4.81341203      19.18349024      11.10388663      -0.00162847      -0.00034627      -0.06244240
Al       6.95955836      17.15685482      11.05825874       0.01595128      -0.00480523      -0.03972686
Al       6.99477365      19.16657416       9.06354242       0.00815739      -0.00164840       0.04308420
Al       5.00000000      17.15000000      13.10000000      -0.62869376       0.00574521      -0.21831624
Al       5.00000000      19.17500000      15.12500000      -0.20464229       0.04032122       0.15521690
Al       7.02500000      17.15000000      15.12500000       0.32655488       0.01073708       0.61601225
Al       7.02500000      19.17500000      13.10000000       0.09046859       0.04362823      -0.55477508
Al       5.00000000      21.20000000       5.00000000      -0.09813355      -0.45185457      -0.06843420
Al       5.00000000      23.22500000       7.02500000      -0.04995365       0.04995365       0.51208712
Al       7.02500000      21.20000000       7.02500000       0.15524517      -0.15524517       0.65202774
Al       7.02500000      23.22500000       5.00000000       0.45185457       0.09813355      -0.06843420
Al       4.88157203      21.17639623       9.03951383      -0.00068532      -0.00100698       0.06161909
Al       4.98112284      23.24387716      11.08038876      -0.00464406       0.00464406      -0.07434434
Al       7.03424895      21.19075105      11.04973030       0.00175291      -0.00175291      -0.04871886
Al       7.04860377      23.34342797       9.03951383       0.00100698       0.00068532       0.06161909
Al       5.00000000      21.20000000      13.10000000      -0.48740527      -0.24702147      -0.35486059
Al       5.00000000      23.22500000      15.12500000       0.32748161      -0.32748161      -0.34200364
Al       7.02500000      21.20000000      15.12500000       0.31884244      -0.31884244       0.56608417
Al       7.02500000      23.22500000      13.10000000       0.24702147       0.48740527      -0.35486059
Al       9.05000000       5.00000000       5.00000000      -0.04154281      -0.20409632      -0.15275194
Al       9.05000000       7.02500000       7.02500000      -0.05274388       0.07213944       0.54756385
Al      11.07500000       5.00000000       7.02500000      -0.00645747      -0.62593792       0.21867176
Al      11.07500000       7.02500000       5.00000000      -0.01279336       0.32212684      -0.61512901
Al       9.04259046       4.81320464       9.02030135      -0.00085435       0.00329462       0.06306322
Al       9.05273563       6.98620156      11.06213828      -0.00069109       0.00591568      -0.04670209
Al      11.06620442       4.79538684      11.09696449      -0.00082975       0.00090793      -0.06067678
Al      11.07017994       6.96296049       9.06488766      -0.00052243       0.00947135       0.04231757
Al       9.05000000       5.00000000      13.10000000      -0.02615646      -0.60182716      -0.20894926
Al       9.05000000       7.02500000      15.12500000      -0.04496148       0.32346122       0.61565348
Al      11.07500000       5.00000000      15.12500000      -0.01216411      -0.21014208       0.15407914
Al      11.07500000       7.02500000      13.10000000       0.00049900       0.01718642      -0.52221080
Al       9.05000000       9.05000000       5.00000000      -0.04425556      -0.04568109      -0.67381381
Al       9.05000000      11.07500000       7.02500000      -0.10355995       0.01611026       0.42036623
Al      11.07500000       9.05000000       7.02500000      -0.01431205      -0.10556396       0.41132180
Al      11.07500000      11.07500000       5.00000000      -0.01151109      -0.01232475      -0.67192261
Al       9.05214390       9.05368347       9.04923410       0.00648564       0.00559395       0.04430480
Al       9.05626749      11.09874303      11.07884960       0.01422737       0.00702358      -0.04157712
Al      11.07234793       9.02779935      11.07674439       0.00496109       0.01430450      -0.04307555
Al      11.08300971      11.08744515       9.05670151       0.00775705       0.01106129       0.05173661
Al       9.05000000       9.05000000      13.10000000      -0.09428039      -0.07748417      -0.43760837
Al       9.05000000      11.07500000      15.12500000      -0.03993116      -0.01114572       0.67135974
Al      11.07500000       9.05000000      15.12500000      -0.01205059      -0.04099085       0.66880057
Al      11.07500000      11.07500000      13.10000000      -0.01420883       0.01920066      -0.37219772
Al       9.05000000      13.10000000       5.00000000      -0.04088137       0.00028128      -0.67527544
Al       9.05000000      15.12500000       7.02500000      -0.04868033      -0.00205324       0.47545277
Al      11.07500000      13.10000000       7.02500000       0.00202066       0.04628773       0.36219760
Al      11.07500000      15.12500000       5.00000000      -0.00881684      -0.00247227      -0.67163657
Al       9.03990257      13.11161273       9.05607043       0.01736431       0.00150378       0.04705724
Al       9.00393616      15.12524350      11.08013358       0.01993594      -0.00194663      -0.03931959
Al      11.13959751      13.17447762      11.09615663       0.00982724       0.00051205      -0.04201274
Al      11.10671155      15.12570678       9.07992757       0.02144675      -0.00102228       0.05503782
Al       9.05000000      13.10000000      13.10000000      -0.09468369       0.02206786      -0.42405452
Al       9.05000000      15.12500000      15.12500000      -0.03448161      -0.00198256       0.66650754
Al      11.07500000      13.10000000      15.12500000      -0.01585389      -0.00466007       0.68091083
Al      11.07500000      15.12500000      13.10000000       0.36715132       0.00302531      -0.47965640
Al       9.05000000      17.15000000       5.00000000      -0.04326013       0.01330474      -0.67572137
Al       9.05000000      19.17500000       7.02500000      -0.07258715       0.07258715       0.45413215
Al      11.07500000      17.15000000       7.02500000       0.01312746      -0.01312746       0.37131921
Al      11.07500000      19.17500000       5.00000000      -0.01330474       0.04326013      -0.67572137
Al       9.04748878      17.13961318       9.05636583       0.01751642      -0.00874579       0.04738958
Al       9.07037222      19.15462778      11.07888026       0.01185346      -0.01185346      -0.04046710
Al      11.14471549      17.08028451      11.09511409       0.00816143      -0.00816143      -0.04316787
Al      11.08538682      19.17751122       9.05636583       0.00874579      -0.01751642       0.04738958
Al       9.05000000      17.15000000      13.10000000      -0.08513792      -0.00598801      -0.42411729
Al       9.05000000      19.17500000      15.12500000      -0.04068492       0.04068492       0.67449461
Al      11.07500000      17.15000000      15.12500000      -0.01675756       0.01675756       0.68488985
Al      11.07500000      19.17500000      13.10000000       0.00598801       0.08513792      -0.42411729
Al       9.05000000      21.20000000       5.00000000      -0.04609485      -0.32286975      -0.61797701
Al       9.05000000      23.22500000       7.02500000      -0.02729172       0.59149630       0.21540308
Al      11.07500000      21.20000000       7.02500000       0.00031011      -0.05144107       0.55454208
Al      11.07500000      23.22500000       5.00000000      -0.01174236       0.21214722      -0.15469229
Al       9.05842584      21.23022635       9.06354242       0.00164840      -0.00815739       0.04308420
Al       9.04150976      23.41158797      11.10388663       0.00034627       0.00162847      -0.06244240
Al      11.06814518      21.26544164      11.05825874       0.00480523      -0.01595128      -0.03972686
Al      11.06482126      23.43206299       9.02711037       0.00139507       0.00226581       0.05853548
Al       9.05000000      21.20000000      13.10000000      -0.04362823      -0.09046859      -0.55477508
Al       9.05000000      23.22500000      15.12500000      -0.04032122       0.20464229       0.15521690
Al      11.07500000      21.20000000      15.12500000      -0.01073708      -0.32655488       0.61601225
Al      11.07500000      23.22500000      13.10000000      -0.00574521       0.62869376      -0.21831624
Al      13.10000000       5.00000000       5.00000000       0.00033833      -0.21464159      -0.15290042
Al      13.10000000       7.02500000       7.02500000       0.00068286      -0.00254175       0.53512222
Al      15.12500000       5.00000000       7.02500000       0.01049751      -0.63486432       0.23526072
Al      15.12500000       7.02500000       5.00000000       0.00026426       0.32186117      -0.61685007
Al      13.09789960       4.78937653       9.02608575       0.00038962      -0.00082655       0.05626668
Al      13.09828399       6.95707372      11.05755598      -0.00288090       0.01153629      -0.04099292
Al      15.12681021       4.78970830      11.09881477      -0.00042903      -0.00273032      -0.05894721
Al      15.12764617       6.95589316       9.06665688       0.00097650       0.00791225       0.03771264
Al      13.10000000       5.00000000      13.10000000      -0.01200580      -0.63113813      -0.23801729
Al      13.10000000       7.02500000      15.12500000      -0.00151428       0.32448227       0.61676503
Al      15.12500000       5.00000000      15.12500000      -0.00131801      -0.21471041       0.15433863
Al      15.12500000       7.02500000      13.10000000      -0.00358413       0.00405624      -0.53618829
Al      13.10000000       9.05000000       5.00000000       0.00115405      -0.04235917      -0.67116351
Al      13.10000000      11.07500000       7.02500000      -0.00263176       0.05485191       0.41121798
Al      15.12500000       9.05000000       7.02500000      -0.00264310      -0.11652262       0.40873059
Al      15.12500000      11.07500000       5.00000000      -0.00156221      -0.01144292      -0.66975081
Al      13.10010443       9.02146368       9.04544848      -0.00213883       0.01249807       0.04437146
Al      13.10062586      11.04609755      11.08178279      -0.00168434       0.01633904      -0.04239466
Al      15.12775305       9.01995767      11.07682018      -0.00463750       0.01499569      -0.04123938
Al      15.11273819      11.08286584       9.05562656      -0.00484156       0.01476706       0.04921882
Al      13.10000000       9.05000000      13.10000000       0.00214959      -0.17807607      -0.35167328
Al      13.10000000      11.07500000      15.12500000       0.00161499      -0.00409290       0.65918088
Al      15.12500000       9.05000000      15.12500000      -0.00384111      -0.03806345       0.66946847
Al      15.12500000      11.07500000      13.10000000      -0.01992408       0.00897238      -0.35595356
Al      13.10000000      13.10000000       5.00000000       0.00233995       0.00335523      -0.67076608
Al      13.10000000      15.12500000       7.02500000      -0.00830728       0.00830728       0.07520830
Al      15.12500000      13.10000000       7.02500000      -0.04281499       0.04281499       0.34790469
Al      15.12500000      15.12500000       5.00000000      -0.00335523      -0.00233995      -0.67076608
Al      13.09802005      13.14163695       9.08083379       0.00161435       0.01506137       0.05910466
Al      15.05059233      13.17440767      11.09694381      -0.00488081       0.00488081      -0.04500416
Al      15.08336305      15.12697995       9.08083379      -0.01506137      -0.00161435       0.05910466
Al      13.10000000      13.10000000      13.10000000      -0.01502146       0.39750617      -0.45995938
Al      13.10000000      15.12500000      15.12500000       0.00332813      -0.00332813       0.82035345
Al      15.12500000      13.10000000      15.12500000       0.00305959      -0.00305959       0.67895206
Al      15.12500000      15.12500000      13.10000000      -0.39750617       0.01502146      -0.45995938
Al      13.10000000      17.15000000       5.00000000       0.00247227       0.00881684      -0.67163657
Al      13.10000000      19.17500000       7.02500000       0.00205324       0.04868033       0.47545277
Al      15.12500000      17.15000000       7.02500000      -0.04628773      -0.00202066       0.36219760
Al      15.12500000      19.17500000       5.00000000      -0.00028128       0.04088137      -0.67527544
Al      13.09929322      17.11828845       9.07992757       0.00102228      -0.02144675       0.05503782
Al      13.09975650      19.22106384      11.08013358       0.00194663      -0.01993594      -0.03931959
Al      15.05052238      17.08540249      11.09615663      -0.00051205      -0.00982724      -0.04201274
Al      15.11338727      19.18509743       9.05607043      -0.00150378      -0.01736431       0.04705724
Al      13.10000000      17.15000000      13.10000000      -0.00302531      -0.36715132      -0.47965640
Al      13.10000000      19.17500000      15.12500000       0.00198256       0.03448161       0.66650754
Al      15.12500000      17.15000000      15.12500000       0.00466007       0.01585389       0.68091083
Al      15.12500000      19.17500000      13.10000000      -0.02206786       0.09468369      -0.42405452
Al      13.10000000      21.20000000       5.00000000       0.00000272      -0.32334857      -0.61878549
Al      13.10000000      23.22500000       7.02500000      -0.01106924       0.64273595       0.23064046
Al      15.12500000      21.20000000       7.02500000      -0.00174720      -0.03930547       0.57084773
Al      15.12500000      23.22500000       5.00000000       0.00015715       0.21578238      -0.15407287
Al      13.09790105      21.27112046       9.06497766       0.00091496      -0.01477974       0.04112389
Al      13.09773745      23.43584684      11.09800661       0.00180944       0.00321665      -0.05539848
Al      15.12925217      21.27259130      11.05647150       0.00007681      -0.01673725      -0.03788914
Al      15.12780084      23.43810129       9.02519901       0.00050910       0.00357468       0.05679183
Al      13.10000000      21.20000000      13.10000000       0.00155415       0.02319856      -0.51301982
Al      13.10000000      23.22500000      15.12500000       0.00094800       0.21383452       0.15459337
Al      15.12500000      21.20000000      15.12500000      -0.00026501      -0.32636724       0.61702659
Al      15.12500000      23.22500000      13.10000000       0.01035243       0.63683669      -0.23525530
Al      17.15000000       5.00000000       5.00000000       0.01284452      -0.21112372      -0.15342941
Al      17.15000000       7.02500000       7.02500000      -0.00009050       0.03010106       0.53598211
Al      19.17500000       5.00000000       7.02500000       0.02862499      -0.59565813       0.21497326
Al      19.17500000       7.02500000       5.00000000       0.04773618       0.32081539      -0.61584555
Al      17.15892369       4.79436986       9.02791099       0.00186457       0.00026650       0.05692045
Al      17.15448453       6.96344732      11.05924373      -0.00007858       0.00749230      -0.04516643
Al      19.18224759       4.81494907      11.10420453       0.00273690       0.00003943      -0.06655109
Al      19.16867738       6.99109084       9.06306657       0.00421342       0.00322104       0.04013110
Al      17.15000000       5.00000000      13.10000000       0.00550694      -0.62586050      -0.22102276
Al      17.15000000       7.02500000      15.12500000       0.01148940       0.32338254       0.61701733
Al      19.17500000       5.00000000      15.12500000       0.04151807      -0.20531505       0.15481179
Al      19.17500000       7.02500000      13.10000000       0.05010284       0.07368319      -0.54562025
Al      17.15000000       9.05000000       5.00000000       0.01351566      -0.04449641      -0.67239156
Al      17.15000000      11.07500000       7.02500000       0.00098571      -0.00098571       0.36472816
Al      19.17500000       9.05000000       7.02500000       0.09317108      -0.09317108       0.43173558
Al      19.17500000      11.07500000       5.00000000       0.04449641      -0.01351566      -0.67239156
Al      17.14452481       9.03985030       9.04951235      -0.00324042       0.00786834       0.04054755
Al      17.12875941      11.09624059      11.07935252      -0.01109033       0.01109033      -0.04397103
Al      19.16898516       9.05601484      11.07768490      -0.00348908       0.00348908      -0.04629991
Al      19.18514970      11.08047519       9.04951235      -0.00786834       0.00324042       0.04054755
Al      17.15000000       9.05000000      13.10000000       0.00411523      -0.10794083      -0.39794262
Al      17.15000000      11.07500000      15.12500000       0.00745723      -0.00745723       0.66823501
Al      19.17500000       9.05000000      15.12500000       0.04340755      -0.04340755       0.67489413
Al      19.17500000      11.07500000      13.10000000       0.10794083      -0.00411523      -0.39794262
Al      17.15000000      13.10000000       5.00000000       0.01144292       0.00156221      -0.66975081
Al      17.15000000      15.12500000       7.02500000      -0.05485191       0.00263176       0.41121798
Al      19.17500000      13.10000000       7.02500000       0.11652262       0.00264310       0.40873059
Al      19.17500000      15.12500000       5.00000000       0.04235917      -0.00115405      -0.67116351
Al      17.14213416      13.11226181       9.05562656      -0.01476706       0.00484156       0.04921882
Al      17.17890245      15.12437414      11.08178279      -0.01633904       0.00168434      -0.04239466
Al      19.20504233      13.09724695      11.07682018      -0.01499569       0.00463750      -0.04123938
Al      19.20353632      15.12489557       9.04544848      -0.01249807       0.00213883       0.04437146
Al      17.15000000      13.10000000      13.10000000      -0.00897238       0.01992408      -0.35595356
Al      17.15000000      15.12500000      15.12500000       0.00409290      -0.00161499       0.65918088
Al      19.17500000      13.10000000      15.12500000       0.03806345       0.00384111       0.66946847
Al      19.17500000      15.12500000      13.10000000       0.17807607      -0.00214959      -0.35167328
Al      17.15000000      17.15000000       5.00000000       0.01232475       0.01151109      -0.67192261
Al      17.15000000      19.17500000       7.02500000      -0.01611026       0.10355995       0.42036623
Al      19.17500000      17.15000000       7.02500000       0.10556396       0.01431205       0.41132180
Al      19.17500000      19.17500000       5.00000000       0.04568109       0.04425556      -0.67381381
Al      17.13755485      17.14199029       9.05670151      -0.01106129      -0.00775705       0.05173661
Al      17.12625697      19.16873251      11.07884960      -0.00702358      -0.01422737      -0.04157712
Al      19.19720065      17.15265207      11.07674439      -0.01430450      -0.00496109      -0.04307555
Al      19.17131653      19.17285610       9.04923410      -0.00559395      -0.00648564       0.04430480
Al      17.15000000      17.15000000      13.10000000      -0.01920066       0.01420883      -0.37219772
Al      17.15000000      19.17500000      15.12500000       0.01114572       0.03993116       0.67135974
Al      19.17500000      17.15000000      15.12500000       0.04099085       0.01205059       0.66880057
Al      19.17500000      19.17500000      13.10000000       0.07748417       0.09428039      -0.43760837
Al      17.15000000      21.20000000       5.00000000       0.01415924      -0.32333748      -0.61758696
Al      17.15000000      23.22500000       7.02500000       0.00959434       0.61418209       0.23012806
Al      19.17500000      21.20000000       7.02500000       0.04789311      -0.07714294       0.54836275
Al      19.17500000      23.22500000       5.00000000       0.04298293       0.20396929      -0.15458606
Al      17.14850792      21.25355523       9.06619801      -0.00007730      -0.01258228       0.04233143
Al      17.15972915      23.43068174      11.09637439       0.00047893       0.00182904      -0.05854000
Al      19.16271920      21.22773582      11.06291506       0.00168626      -0.00759820      -0.04518490
Al      19.18075670      23.40392359       9.02145735       0.00197877      -0.00066543       0.06212428
Al      17.15000000      21.20000000      13.10000000      -0.00864330      -0.04919743      -0.54458640
Al      17.15000000      23.22500000      15.12500000       0.01225347       0.21055840       0.15495699
Al      19.17500000      21.20000000      15.12500000       0.04589121      -0.32386323       0.61701384
Al      19.17500000      23.22500000      13.10000000       0.02656894       0.59021495      -0.21974261
Al      21.20000000       5.00000000       5.00000000      -0.45212494      -0.09623691      -0.06615710
Al      21.20000000       7.02500000       7.02500000      -0.14733759       0.14733759       0.65394520
Al      23.22500000       5.00000000       7.02500000       0.04860678      -0.04860678       0.50793162
Al      23.22500000       7.02500000       5.00000000       0.09623691       0.45212494      -0.06615710
Al      21.17804264       4.87821321       9.03994708      -0.00137296       0.00395830       0.05965919
Al      21.19631657       7.02868343      11.04936427       0.00054123      -0.00054123      -0.05514189
Al      23.24735140       4.97764860      11.08225750       0.00206745      -0.00206745      -0.07659452
Al      23.34678679       7.04695736       9.03994708      -0.00395830       0.00137296       0.05965919
Al      21.20000000       5.00000000      13.10000000      -0.24522565      -0.49346028      -0.35350095
Al      21.20000000       7.02500000      15.12500000      -0.31703313       0.31703313       0.56499131
Al      23.22500000       5.00000000      15.12500000      -0.32777687       0.32777687      -0.34421970
Al      23.22500000       7.02500000      13.10000000       0.49346028       0.24522565      -0.35350095
Al      21.20000000       9.05000000       5.00000000      -0.32081539      -0.04773618      -0.61584555
Al      21.20000000      11.07500000       7.02500000      -0.03010106       0.00009050       0.53598211
Al      23.22500000       9.05000000       7.02500000       0.59565813      -0.02862499       0.21497326
Al      23.22500000      11.07500000       5.00000000       0.21112372      -0.01284452      -0.15342941
Al      21.23390916       9.05632262       9.06306657      -0.00322104      -0.00421342       0.04013110
Al      21.26155268      11.07051547      11.05924373      -0.00749230       0.00007858      -0.04516643
Al      23.41005093       9.04275241      11.10420453      -0.00003943      -0.00273690      -0.06655109
Al      23.43063014      11.06607631       9.02791099      -0.00026650      -0.00186457       0.05692045
Al      21.20000000       9.05000000      13.10000000      -0.07368319      -0.05010284      -0.54562025
Al      21.20000000      11.07500000      15.12500000      -0.32338254      -0.01148940       0.61701733
Al      23.22500000       9.05000000      15.12500000       0.20531505      -0.04151807       0.15481179
Al      23.22500000      11.07500000      13.10000000       0.62586050      -0.00550694      -0.22102276
Al      21.20000000      13.10000000       5.00000000      -0.32186117      -0.00026426      -0.61685007
Al      21.20000000      15.12500000       7.02500000       0.00254175      -0.00068286       0.53512222
Al      23.22500000      13.10000000       7.02500000       0.63486432      -0.01049751       0.23526072
Al      23.22500000      15.12500000       5.00000000       0.21464159      -0.00033833      -0.15290042
Al      21.26910684      13.09735383       9.06665688      -0.00791225      -0.00097650       0.03771264
Al      21.26792628      15.12671601      11.05755598      -0.01153629       0.00288090      -0.04099292
Al      23.43529170      13.09818979      11.09881477       0.00273032       0.00042903      -0.05894721
Al      23.43562347      15.12710040       9.02608575       0.00082655      -0.00038962       0.05626668
Al      21.20000000      13.10000000      13.10000000      -0.00405624       0.00358413      -0.53618829
Al      21.20000000      15.12500000      15.12500000      -0.32448227       0.00151428       0.61676503
Al      23.22500000      13.10000000      15.12500000       0.21471041       0.00131801       0.15433863
Al      23.22500000      15.12500000      13.10000000       0.63113813       0.01200580      -0.23801729
Al      21.20000000      17.15000000       5.00000000      -0.32212684       0.01279336      -0.61512901
Al      21.20000000      19.17500000       7.02500000      -0.07213944       0.05274388       0.54756385
Al      23.22500000      17.15000000       7.02500000       0.62593792       0.00645747       0.21867176
Al      23.22500000      19.17500000       5.00000000       0.20409632       0.04154281      -0.15275194
Al      21.26203951      17.15482006       9.06488766      -0.00947135       0.00052243       0.04231757
Al      21.23879844      19.17226437      11.06213828      -0.00591568       0.00069109      -0.04670209
Al      23.42961316      17.15879558      11.09696449      -0.00090793       0.00082975      -0.06067678
Al      23.41179536      19.18240954       9.02030135      -0.00329462       0.00085435       0.06306322
Al      21.20000000      17.15000000      13.10000000      -0.01718642      -0.00049900      -0.52221080