299
Lattice="28.224999999999998 0.0 0.0 0.0 28.224999999999998 0.0 0.0 0.0 20.125" Properties=species:S:1:pos:R:3:forces:R:3 energy=-16469.311667992028 pbc="T T T"
Al       5.00000000       5.00000000       5.00000000       0.32840230       0.32885690       0.34623676
Al       5.00000000       7.02500000       7.02500000      -0.48616955       0.24373363       0.37827609
Al       7.02500000       5.00000000       7.02500000       0.24003770      -0.48600863       0.37276116
Al       7.02500000       7.02500000       5.00000000       0.31167910       0.31263965      -0.56196884
Al       4.97759630       4.97725357       9.04837395      -0.01205170      -0.00984368       0.03887325
Al       4.88312857       7.04797122      11.07869225      -0.00885220      -0.00131928      -0.00248212
Al       7.04639736       4.87392770      11.07933383      -0.00470456      -0.00740155      -0.00276038
Al       7.02848549       7.02675600       9.08219023      -0.00986472      -0.00527817      -0.02989165
Al       5.00000000       5.00000000      13.10000000      -0.04342564      -0.03879061      -0.52273976
Al       5.00000000       7.02500000      15.12500000      -0.09787481       0.44880631       0.06580120
Al       7.02500000       5.00000000      15.12500000       0.44783777      -0.09808250       0.06495990
Al       7.02500000       7.02500000      13.10000000       0.14288158       0.14532115      -0.67944814
Al       5.00000000       9.05000000       5.00000000      -0.20645746      -0.04345155      -0.15452909
Al       5.00000000      11.07500000       7.02500000      -0.60960100      -0.01284673       0.24916208
Al       7.02500000       9.05000000       7.02500000       0.06490059      -0.05769554       0.56996290
Al       7.02500000      11.07500000       5.00000000       0.31336527      -0.01174006      -0.62034813
Al       4.82102171       9.04381953       9.02737819      -0.00768000      -0.00074418       0.00944119
Al       4.79403375      11.06498623      11.09040315      -0.00704249      -0.00014931      -0.00834513
Al       6.99731048       9.06178185      11.05697492      -0.01038213      -0.00075230       0.03258689
Al       6.97201352      11.07626602       9.07182134      -0.01112614       0.00013578      -0.02527340
Al       5.00000000       9.05000000      13.10000000      -0.58445185      -0.03327008      -0.24168619
Al       5.00000000      11.07500000      15.12500000      -0.21115343      -0.01086154       0.15496291
Al       7.02500000       9.05000000      15.12500000       0.31498719      -0.04811135       0.61706436
Al       7.02500000      11.07500000      13.10000000       0.03846023       0.00660957      -0.56579321
Al       5.00000000      13.10000000       5.00000000      -0.21491845       0.00171597      -0.15493231
Al       5.00000000      15.12500000       7.02500000      -0.63619930       0.01298958       0.24642449
Al       7.02500000      13.10000000       7.02500000       0.02839159       0.00283223       0.58659074
Al       7.02500000      15.12500000       5.00000000       0.31300762       0.00024198      -0.62054128
Al       4.78655977      13.09707854       9.03085032      -0.00780605      -0.00000613       0.01228811
Al       4.78868735      15.12746676      11.09208856      -0.00529976      -0.00044038      -0.00672069
Al       6.95318495      13.09545284      11.05050691      -0.00936202       0.00261058       0.03432825
Al       6.95466530      15.12733685       9.07047373      -0.00967538       0.00063644      -0.02631197
Al       5.00000000      13.10000000      13.10000000      -0.62951734      -0.01019857      -0.25266052
Al       5.00000000      15.12500000      15.12500000      -0.21215539      -0.00068490       0.15442583
Al       7.02500000      13.10000000      15.12500000       0.31532999       0.00233822       0.61843826
Al       7.02500000      15.12500000      13.10000000      -0.03365103       0.00057937      -0.53139642
Al       5.00000000      17.15000000       5.00000000      -0.21199855       0.01199262      -0.15479749
Al       5.00000000      19.17500000       7.02500000      -0.58478383       0.03571822       0.23606605
Al       7.02500000      17.15000000       7.02500000       0.04227940       0.00388139       0.57412440
Al       7.02500000      19.17500000       5.00000000       0.31514706       0.04981689      -0.61680331
Al       4.79268682      17.16050344       9.03277452      -0.00661395       0.00077510       0.01301329
Al       4.81311030      19.18395795      11.09780821      -0.00319162      -0.00032844      -0.00603453
Al       6.95988907      17.15695950      11.05227778      -0.00581430       0.00030089       0.03251456
Al       6.99456513      19.16695898       9.06884403      -0.00511159       0.00187418      -0.02400263
Al       5.00000000      17.15000000      13.10000000      -0.62074448       0.01202982      -0.23857205
Al       5.00000000      19.17500000      15.12500000      -0.20379329       0.04310066       0.15246245
Al       7.02500000      17.15000000      15.12500000       0.31686836       0.01179404       0.61665057
Al       7.02500000      19.17500000      13.10000000       0.07946525       0.05677594      -0.57915359
Al       5.00000000      21.20000000       5.00000000      -0.09739119      -0.44819386      -0.06496644
Al       5.00000000      23.22500000       7.02500000      -0.04004667       0.04004667       0.52500770
Al       7.02500000      21.20000000       7.02500000       0.14918055      -0.14918055       0.67605067
Al       7.02500000      23.22500000       5.00000000       0.44819386       0.09739119      -0.06496644
Al       4.88159901      21.17666593       9.04541413      -0.00583313       0.00173759       0.00560285
Al       4.98117265      23.24382735      11.07495935      -0.00916474       0.00916474      -0.03624882
Al       7.03385764      21.19114236      11.04377928      -0.00354042       0.00354042       0.03349560
Al       7.04833407      23.34340099       9.04541413      -0.00173759       0.00583313       0.00560285
Al       5.00000000      21.20000000      13.10000000      -0.47604397      -0.24389056      -0.37555258
Al       5.00000000      23.22500000      15.12500000       0.33088530      -0.33088530      -0.34582538
Al       7.02500000      21.20000000      15.12500000       0.31417686      -0.31417686       0.56040937
Al       7.02500000      23.22500000      13.10000000       0.24389056       0.47604397      -0.37555258
Al       9.05000000       5.00000000       5.00000000      -0.04398887      -0.20698949      -0.15415185
Al       9.05000000       7.02500000       7.02500000      -0.06549342       0.06206468       0.56722721
Al      11.07500000       5.00000000       7.02500000      -0.01092917      -0.62351532       0.23554219
Al      11.07500000       7.02500000       5.00000000      -0.01183170       0.31371827      -0.62026769
Al       9.04237390       4.81317812       9.02627284      -0.00350087      -0.00838001       0.00857839
Al       9.05254474       6.98597134      11.05620543      -0.00558849      -0.00639046       0.03273131
Al      11.06591285       4.79524756      11.09094555      -0.00119165      -0.01010112      -0.00751341
Al      11.07005787       6.96338178       9.07054578      -0.00294821      -0.01120800      -0.02811994
Al       9.05000000       5.00000000      13.10000000      -0.03454472      -0.59697445      -0.22867283
Al       9.05000000       7.02500000      15.12500000      -0.04933133       0.31603864       0.61686887
Al      11.07500000       5.00000000      15.12500000      -0.01107931      -0.21172902       0.15602017
Al      11.07500000       7.02500000      13.10000000      -0.00254305       0.00835865      -0.54024502
Al       9.05000000       9.05000000       5.00000000      -0.05176564      -0.05047681      -0.68191043
Al       9.05000000      11.07500000       7.02500000      -0.11683837       0.01397061       0.43434536
Al      11.07500000       9.05000000       7.02500000      -0.01843902      -0.11568888       0.42386383
Al      11.07500000      11.07500000       5.00000000      -0.01633463      -0.01492394      -0.68607338
Al       9.05258027       9.05373181       9.05474778      -0.00990268      -0.00284132      -0.02273280
Al       9.05698609      11.09887422      11.07261372      -0.01127021      -0.00064749       0.03401538
Al      11.07267960       9.02818934      11.07051672      -0.00489116      -0.00392106       0.03326415
Al      11.08344378      11.08756808       9.06253077      -0.00420958       0.00536856      -0.02410998
Al       9.05000000       9.05000000      13.10000000      -0.10804332      -0.08868237      -0.45660628
Al       9.05000000      11.07500000      15.12500000      -0.05177033      -0.01149179       0.68149498
Al      11.07500000       9.05000000      15.12500000      -0.01330332      -0.05063350       0.68018502
Al      11.07500000      11.07500000      13.10000000      -0.02147260       0.01214158      -0.38593322
Al       9.05000000      13.10000000       5.00000000      -0.05479935       0.00088355      -0.68612727
Al       9.05000000      15.12500000       7.02500000      -0.06634555       0.00321949       0.48874655
Al      11.07500000      13.10000000       7.02500000      -0.00240886       0.04158312       0.37464868
Al      11.07500000      15.12500000       5.00000000      -0.01538881       0.00183341      -0.68692310
Al       9.04049843      13.11117499       9.06150261      -0.00511458       0.00557194      -0.02050042
Al       9.00450296      15.12539416      11.07414921      -0.00597379       0.00247279       0.03094695
Al      11.14046272      13.17422802      11.08958627      -0.01279919      -0.00121637       0.04194638
Al      11.10729602      15.12579802       9.08528281       0.01138622       0.00327777      -0.01001719
Al       9.05000000      13.10000000      13.10000000      -0.11596414       0.01930531      -0.43777016
Al       9.05000000      15.12500000      15.12500000      -0.05011920       0.00095184       0.67716226
Al      11.07500000      13.10000000      15.12500000      -0.02440892      -0.00692942       0.69972717
Al      11.07500000      15.12500000      13.10000000       0.35254931       0.01078092      -0.49144410
Al       9.05000000      17.15000000       5.00000000      -0.05343212       0.01546838      -0.68393283
Al       9.05000000      19.17500000       7.02500000      -0.08493666       0.08493666       0.47294383
Al      11.07500000      17.15000000       7.02500000       0.00584477      -0.00584477       0.38448973
Al      11.07500000      19.17500000       5.00000000      -0.01546838       0.05343212      -0.68393283
Al       9.04797722      17.13933484       9.06183316      -0.00185925       0.00137377      -0.02001214
Al       9.07059688      19.15440312      11.07300652      -0.00501194       0.00501194       0.03054070
Al      11.14520789      17.07979211      11.08850040      -0.01126125       0.01126125       0.04178928
Al      11.08566516      19.17702278       9.06183316      -0.00137377       0.00185925      -0.02001214
Al       9.05000000      17.15000000      13.10000000      -0.10066979       0.00079124      -0.44062440
Al       9.05000000      19.17500000      15.12500000      -0.04891445       0.04891445       0.67890619
Al      11.07500000      17.15000000      15.12500000      -0.02381373       0.02381373       0.69812578
Al      11.07500000      19.17500000      13.10000000      -0.00079124       0.10066979      -0.44062440
Al       9.05000000      21.20000000       5.00000000      -0.04981689      -0.31514706      -0.61680331
Al       9.05000000      23.22500000       7.02500000      -0.03571822       0.58478383       0.23606605
Al      11.07500000      21.20000000       7.02500000      -0.00388139      -0.04227940       0.57412440
Al      11.07500000      23.22500000       5.00000000      -0.01199262       0.21199855      -0.15479749
Al       9.05804102      21.23043487       9.06884403      -0.00187418       0.00511159      -0.02400263
Al       9.04104205      23.41188970      11.09780821       0.00032844       0.00319162      -0.00603453
Al      11.06804050      21.26511093      11.05227778      -0.00030089       0.00581430       0.03251456
Al      11.06449656      23.43231318       9.03277452      -0.00077510       0.00661395       0.01301329
Al       9.05000000      21.20000000      13.10000000      -0.05677594      -0.07946525      -0.57915359
Al       9.05000000      23.22500000      15.12500000      -0.04310066       0.20379329       0.15246245
Al      11.07500000      21.20000000      15.12500000      -0.01179404      -0.31686836       0.61665057
Al      11.07500000      23.22500000      13.10000000      -0.01202982       0.62074448      -0.23857205
Al      13.10000000       5.00000000       5.00000000       0.00257611      -0.21523823      -0.15597942
Al      13.10000000       7.02500000       7.02500000       0.00179949      -0.01186540       0.54822867
Al      15.12500000       5.00000000       7.02500000       0.01334654      -0.63068785       0.25011481
Al      15.12500000       7.02500000       5.00000000       0.00207137       0.31248236      -0.62045810
Al      13.09752111       4.78919398       9.03180650       0.00326226      -0.01108483       0.01017041
Al      13.09772090       6.95778530      11.05157644       0.00353012      -0.01183265       0.03501715
Al      15.12654566       4.78929066      11.09286658       0.00595461      -0.00812186      -0.00742252
Al      15.12741381       6.95661973       9.07212072       0.00813109      -0.01399683      -0.02826090
Al      13.10000000       5.00000000      13.10000000      -0.01056157      -0.62589262      -0.25268514
Al      13.10000000       7.02500000      15.12500000       0.00230405       0.31437047       0.62029219
Al      15.12500000       5.00000000      15.12500000       0.00104513      -0.21303124       0.15489467
Al      15.12500000       7.02500000      13.10000000       0.00155530      -0.00570433      -0.55240043
Al      13.10000000       9.05000000       5.00000000       0.00126941      -0.05463535      -0.68413891
Al      13.10000000      11.07500000       7.02500000      -0.00731391       0.05302040       0.42480355
Al      15.12500000       9.05000000       7.02500000       0.00285508      -0.13233781       0.42147910
Al      15.12500000      11.07500000       5.00000000       0.00236832      -0.01730515      -0.68677423
Al      13.09961219       9.02199109       9.05100835       0.00176933      -0.00752568      -0.02536711
Al      13.10024406      11.04661783      11.07545217      -0.00073628       0.00056790       0.03482363
Al      15.12747924       9.02054069      11.07076418       0.00569409      -0.00837700       0.03183871
Al      15.11274120      11.08350468       9.06126470       0.00008893       0.00005070      -0.02400985
Al      13.10000000       9.05000000      13.10000000       0.00084122      -0.19491245      -0.36487470
Al      13.10000000      11.07500000      15.12500000      -0.00003511      -0.01195254       0.67808225
Al      15.12500000       9.05000000      15.12500000       0.00140359      -0.05279946       0.68070047
Al      15.12500000      11.07500000      13.10000000      -0.01066824       0.00111966      -0.37077586
Al      13.10000000      13.10000000       5.00000000      -0.00113278       0.00176839      -0.68874108
Al      13.10000000      15.12500000       7.02500000      -0.01171428       0.01171428       0.08151052
Al      15.12500000      13.10000000       7.02500000      -0.03935753       0.03935753       0.35969136
Al      15.12500000      15.12500000       5.00000000      -0.00176839       0.00113278      -0.68874108
Al      13.09806106      13.14142427       9.08630700      -0.00361064       0.02131890      -0.01364272
Al      15.05034909      13.17465091      11.09030386       0.00466143      -0.00466143       0.04504658
Al      15.08357573      15.12693894       9.08630700      -0.02131890       0.00361064      -0.01364272
Al      13.10000000      13.10000000      13.10000000      -0.01727206       0.38747756      -0.47118765
Al      13.10000000      15.12500000      15.12500000      -0.00145863       0.00145863       0.84045252
Al      15.12500000      13.10000000      15.12500000       0.00842195      -0.00842195       0.70045537
Al      15.12500000      15.12500000      13.10000000      -0.38747756       0.01727206      -0.47118765
Al      13.10000000      17.15000000       5.00000000      -0.00183341       0.01538881      -0.68692310
Al      13.10000000      19.17500000       7.02500000      -0.00321949       0.06634555       0.48874655
Al      15.12500000      17.15000000       7.02500000      -0.04158312       0.00240886       0.37464868
Al      15.12500000      19.17500000       5.00000000      -0.00088355       0.05479935      -0.68612727
Al      13.09920198      17.11770398       9.08528281      -0.00327777      -0.01138622      -0.01001719
Al      13.09960584      19.22049704      11.07414921      -0.00247279       0.00597379       0.03094695
Al      15.05077198      17.08453728      11.08958627       0.00121637       0.01279919       0.04194638
Al      15.11382501      19.18450157       9.06150261      -0.00557194       0.00511458      -0.02050042
Al      13.10000000      17.15000000      13.10000000      -0.01078092      -0.35254931      -0.49144410
Al      13.10000000      19.17500000      15.12500000      -0.00095184       0.05011920       0.67716226
Al      15.12500000      17.15000000      15.12500000       0.00692942       0.02440892       0.69972717
Al      15.12500000      19.17500000      13.10000000      -0.01930531       0.11596414      -0.43777016
Al      13.10000000      21.20000000       5.00000000      -0.00024198      -0.31300762      -0.62054128
Al      13.10000000      23.22500000       7.02500000      -0.01298958       0.63619930       0.24642449
Al      15.12500000      21.20000000       7.02500000      -0.00283223      -0.02839159       0.58659074
Al      15.12500000      23.22500000       5.00000000      -0.00171597       0.21491845      -0.15493231
Al      13.09766315      21.27033470       9.07047373      -0.00063644       0.00967538      -0.02631197
Al      13.09753324      23.43631265      11.09208856       0.00044038       0.00529976      -0.00672069
Al      15.12954716      21.27181505      11.05050691      -0.00261058       0.00936202       0.03432825
Al      15.12792146      23.43844023       9.03085032       0.00000613       0.00780605       0.01228811
Al      13.10000000      21.20000000      13.10000000      -0.00057937       0.03365103      -0.53139642
Al      13.10000000      23.22500000      15.12500000       0.00068490       0.21215539       0.15442583
Al      15.12500000      21.20000000      15.12500000      -0.00233822      -0.31532999       0.61843826
Al      15.12500000      23.22500000      13.10000000       0.01019857       0.62951734      -0.25266052
Al      17.15000000       5.00000000       5.00000000       0.01435800      -0.21160312      -0.15438945
Al      17.15000000       7.02500000       7.02500000       0.00602338       0.02136915       0.55581795
Al      19.17500000       5.00000000       7.02500000       0.03698628      -0.58925896       0.23781845
Al      19.17500000       7.02500000       5.00000000       0.05193296       0.31419514      -0.61465195
Al      17.15872011       4.79403401       9.03362718       0.00885904      -0.00592663       0.01190144
Al      17.15406274       6.96375833      11.05318184       0.01126095      -0.01065204       0.03043406
Al      19.18229001       4.81439514      11.09807679       0.00659338      -0.00018019      -0.00828385
Al      19.16866205       6.99098769       9.06849792       0.01124739      -0.00989261      -0.02548661
Al      17.15000000       5.00000000      13.10000000       0.01286383      -0.61749328      -0.24080298
Al      17.15000000       7.02500000      15.12500000       0.01465515       0.31494305       0.61711824
Al      19.17500000       5.00000000      15.12500000       0.04478351      -0.20331433       0.15124040
Al      19.17500000       7.02500000      13.10000000       0.06372618       0.06427824      -0.57181461
Al      17.15000000       9.05000000       5.00000000       0.01736472      -0.05490752      -0.68177762
Al      17.15000000      11.07500000       7.02500000       0.00714917      -0.00714917       0.37981895
Al      19.17500000       9.05000000       7.02500000       0.10637744      -0.10637744       0.45220987
Al      19.17500000      11.07500000       5.00000000       0.05490752      -0.01736472      -0.68177762
Al      17.14376258       9.04055557       9.05505613       0.01259707      -0.01235369      -0.02307085
Al      17.12799889      11.09700111      11.07287282       0.00919193      -0.00919193       0.03557874
Al      19.16850117       9.05649883      11.07165747       0.01274831      -0.01274831       0.02702384
Al      19.18444443      11.08123742       9.05505613       0.01235369      -0.01259707      -0.02307085
Al      17.15000000       9.05000000      13.10000000       0.01271966      -0.12253579      -0.41654465
Al      17.15000000      11.07500000      15.12500000       0.01554127      -0.01554127       0.68120750
Al      19.17500000       9.05000000      15.12500000       0.05197994      -0.05197994       0.67802392
Al      19.17500000      11.07500000      13.10000000       0.12253579      -0.01271966      -0.41654465
Al      17.15000000      13.10000000       5.00000000       0.01730515      -0.00236832      -0.68677423
Al      17.15000000      15.12500000       7.02500000      -0.05302040       0.00731391       0.42480355
Al      19.17500000      13.10000000       7.02500000       0.13233781      -0.00285508       0.42147910
Al      19.17500000      15.12500000       5.00000000       0.05463535      -0.00126941      -0.68413891
Al      17.14149532      13.11225880       9.06126470      -0.00005070      -0.00008893      -0.02400985
Al      17.17838217      15.12475594      11.07545217      -0.00056790       0.00073628       0.03482363
Al      19.20445931      13.09752076      11.07076418       0.00837700      -0.00569409       0.03183871
Al      19.20300891      15.12538781       9.05100835       0.00752568      -0.00176933      -0.02536711
Al      17.15000000      13.10000000      13.10000000      -0.00111966       0.01066824      -0.37077586
Al      17.15000000      15.12500000      15.12500000       0.01195254       0.00003511       0.67808225
Al      19.17500000      13.10000000      15.12500000       0.05279946      -0.00140359       0.68070047
Al      19.17500000      15.12500000      13.10000000       0.19491245      -0.00084122      -0.36487470
Al      17.15000000      17.15000000       5.00000000       0.01492394       0.01633463      -0.68607338
Al      17.15000000      19.17500000       7.02500000      -0.01397061       0.11683837       0.43434536
Al      19.17500000      17.15000000       7.02500000       0.11568888       0.01843902       0.42386383
Al      19.17500000      19.17500000       5.00000000       0.05047681       0.05176564      -0.68191043
Al      17.13743192      17.14155622       9.06253077      -0.00536856       0.00420958      -0.02410998
Al      17.12612578      19.16801391      11.07261372       0.00064749       0.01127021       0.03401538
Al      19.19681066      17.15232040      11.07051672       0.00392106       0.00489116       0.03326415
Al      19.17126819      19.17241973       9.05474778       0.00284132       0.00990268      -0.02273280
Al      17.15000000      17.15000000      13.10000000      -0.01214158       0.02147260      -0.38593322
Al      17.15000000      19.17500000      15.12500000       0.01149179       0.05177033       0.68149498
Al      19.17500000      17.15000000      15.12500000       0.05063350       0.01330332       0.68018502
Al      19.17500000      19.17500000      13.10000000       0.08868237       0.10804332      -0.45660628
Al      17.15000000      21.20000000       5.00000000       0.01174006      -0.31336527      -0.62034813
Al      17.15000000      23.22500000       7.02500000       0.01284673       0.60960100       0.24916208
Al      19.17500000      21.20000000       7.02500000       0.05769554      -0.06490059       0.56996290
Al      19.17500000      23.22500000       5.00000000       0.04345155       0.20645746      -0.15452909
Al      17.14873398      21.25298648       9.07182134      -0.00013578       0.01112614      -0.02527340
Al      17.16001377      23.43096625      11.09040315       0.00014931       0.00704249      -0.00834513
Al      19.16321815      21.22768952      11.05697492       0.00075230       0.01038213       0.03258689
Al      19.18118047      23.40397829       9.02737819       0.00074418       0.00768000       0.00944119
Al      17.15000000      21.20000000      13.10000000      -0.00660957      -0.03846023      -0.56579321
Al      17.15000000      23.22500000      15.12500000       0.01086154       0.21115343       0.15496291
Al      19.17500000      21.20000000      15.12500000       0.04811135      -0.31498719       0.61706436
Al      19.17500000      23.22500000      13.10000000       0.03327008       0.58445185      -0.24168619
Al      21.20000000       5.00000000       5.00000000      -0.44787298      -0.09610839      -0.06275069
Al      21.20000000       7.02500000       7.02500000      -0.14193888       0.14193888       0.68141960
Al      23.22500000       5.00000000       7.02500000       0.03900293      -0.03900293       0.52295265
Al      23.22500000       7.02500000       5.00000000       0.09610839       0.44787298      -0.06275069
Al      21.17816360       4.87792225       9.04589674       0.00319573      -0.00054590       0.00611051
Al      21.19655586       7.02844414      11.04318132       0.00689236      -0.00689236       0.03004151
Al      23.24761331       4.97738669      11.07684568       0.00465071      -0.00465071      -0.03852411
Al      23.34707775       7.04683640       9.04589674       0.00054590      -0.00319573       0.00611051
Al      21.20000000       5.00000000      13.10000000      -0.24300122      -0.48036798      -0.37688007
Al      21.20000000       7.02500000      15.12500000      -0.31334770       0.31334770       0.55794746
Al      23.22500000       5.00000000      15.12500000      -0.33126880       0.33126880      -0.34857661
Al      23.22500000       7.02500000      13.10000000       0.48036798       0.24300122      -0.37688007
Al      21.20000000       9.05000000       5.00000000      -0.31419514      -0.05193296      -0.61465195
Al      21.20000000      11.07500000       7.02500000      -0.02136915      -0.00602338       0.55581795
Al      23.22500000       9.05000000       7.02500000       0.58925896      -0.03698628       0.23781845
Al      23.22500000      11.07500000       5.00000000       0.21160312      -0.01435800      -0.15438945
Al      21.23401231       9.05633795       9.06849792       0.00989261      -0.01124739      -0.02548661
Al      21.26124167      11.07093726      11.05318184       0.01065204      -0.01126095       0.03043406
Al      23.41060486       9.04270999      11.09807679       0.00018019      -0.00659338      -0.00828385
Al      23.43096599      11.06627989       9.03362718       0.00592663      -0.00885904       0.01190144
Al      21.20000000       9.05000000      13.10000000      -0.06427824      -0.06372618      -0.57181461
Al      21.20000000      11.07500000      15.12500000      -0.31494305      -0.01465515       0.61711824
Al      23.22500000       9.05000000      15.12500000       0.20331433      -0.04478351       0.15124040
Al      23.22500000      11.07500000      13.10000000       0.61749328      -0.01286383      -0.24080298
Al      21.20000000      13.10000000       5.00000000      -0.31248236      -0.00207137      -0.62045810
Al      21.20000000      15.12500000       7.02500000       0.01186540      -0.00179949       0.54822867
Al      23.22500000      13.10000000       7.02500000       0.63068785      -0.01334654       0.25011481
Al      23.22500000      15.12500000       5.00000000       0.21523823      -0.00257611      -0.15597942
Al      21.26838027      13.09758619       9.07212072       0.01399683      -0.00813109      -0.02826090
Al      21.26721470      15.12727910      11.05157644       0.01183265      -0.00353012       0.03501715
Al      23.43570934      13.09845434      11.09286658       0.00812186      -0.00595461      -0.00742252
Al      23.43580602      15.12747889       9.03180650       0.01108483      -0.00326226       0.01017041
Al      21.20000000      13.10000000      13.10000000       0.00570433      -0.00155530      -0.55240043
Al      21.20000000      15.12500000      15.12500000      -0.31437047      -0.00230405       0.62029219
Al      23.22500000      13.10000000      15.12500000       0.21303124      -0.00104513       0.15489467
Al      23.22500000      15.12500000      13.10000000       0.62589262       0.01056157      -0.25268514
Al      21.20000000      17.15000000       5.00000000      -0.31371827       0.01183170      -0.62026769
Al      21.20000000      19.17500000       7.02500000      -0.06206468       0.06549342       0.56722721
Al      23.22500000      17.15000000       7.02500000       0.62351532       0.01092917       0.23554219
Al      23.22500000      19.17500000       5.00000000       0.20698949       0.04398887      -0.15415185
Al      21.26161822      17.15494213       9.07054578       0.01120800       0.00294821      -0.02811994
Al      21.23902866      19.17245526      11.05620543       0.00639046       0.00558849       0.03273131
Al      23.42975244      17.15908715      11.09094555       0.01010112       0.00119165      -0.00751341
Al      23.41182188      19.18262610       9.02627284       0.00838001       0.00350087       0.00857839
Al      21.20000000      17.15000000      13.10000000      -0.00835865       0.00254305      -0.54024502