299
Lattice="28.224999999999998 0.0 0.0 0.0 28.224999999999998 0.0 0.0 0.0 20.125" Properties=species:S:1:pos:R:3:forces:R:3 energy=-16469.30088301951 pbc="T T T"
Al       5.00000000       5.00000000       5.00000000       0.32538312       0.32509828       0.33460239
Al       5.00000000       7.02500000       7.02500000      -0.50180854       0.24438731       0.37533925
Al       7.02500000       5.00000000       7.02500000       0.24164452      -0.50238124       0.37044948
Al       7.02500000       7.02500000       5.00000000       0.32395559       0.32396498      -0.59116127
Al       4.97752220       4.97729153       9.04653347      -0.01205693      -0.01135943       0.05311165
Al       4.88317722       7.04806517      11.08143239      -0.00665417      -0.00130861      -0.03462938
Al       7.04638965       4.87409463      11.08206983      -0.00278760      -0.00624977      -0.03506569
Al       7.02845073       7.02687438       9.07967174      -0.00784656      -0.00597000       0.02720429
Al       5.00000000       5.00000000      13.10000000      -0.05244583      -0.04879372      -0.52225778
Al       5.00000000       7.02500000      15.12500000      -0.09601437       0.45365205       0.08532321
Al       7.02500000       5.00000000      15.12500000       0.45366822      -0.09685265       0.08414696
Al       7.02500000       7.02500000      13.10000000       0.14660524       0.14765849      -0.66443420
Al       5.00000000       9.05000000       5.00000000      -0.20010464      -0.03667967      -0.17626248
Al       5.00000000      11.07500000       7.02500000      -0.62231504      -0.00795013       0.24140324
Al       7.02500000       9.05000000       7.02500000       0.07227850      -0.04918103       0.55120168
Al       7.02500000      11.07500000       5.00000000       0.33141083      -0.00470919      -0.65039999
Al       4.82117927       9.04392468       9.02504464      -0.00557455       0.00221991       0.04091990
Al       4.79417270      11.06512895      11.09312867      -0.00369641       0.00373511      -0.03838664
Al       6.99724503       9.06196847      11.05982774      -0.00692508       0.00248268      -0.02226331
Al       6.97171080      11.07642299       9.06938425      -0.00295276       0.00593808       0.02773436
Al       5.00000000       9.05000000      13.10000000      -0.59899815      -0.02874452      -0.23354926
Al       5.00000000      11.07500000      15.12500000      -0.20250037      -0.00573921       0.17644628
Al       7.02500000       9.05000000      15.12500000       0.33059625      -0.03878392       0.64692978
Al       7.02500000      11.07500000      13.10000000       0.04654949       0.01307483      -0.54276368
Al       5.00000000      13.10000000       5.00000000      -0.20496592       0.00367194      -0.17639404
Al       5.00000000      15.12500000       7.02500000      -0.64799637       0.01098571       0.23793598
Al       7.02500000      13.10000000       7.02500000       0.03855326       0.00537460       0.56536217
Al       7.02500000      15.12500000       5.00000000       0.33174095      -0.00309583      -0.64990331
Al       4.78671938      13.09716588       9.02857368      -0.00343476       0.00167866       0.04102696
Al       4.78887282      15.12734796      11.09489533      -0.00215910      -0.00157612      -0.03651711
Al       6.95287273      13.09563533      11.05355962      -0.00169910       0.00288256      -0.01999031
Al       6.95431945      15.12719904       9.06807390      -0.00231696      -0.00130497       0.02553873
Al       5.00000000      13.10000000      13.10000000      -0.64184194      -0.00839767      -0.24153268
Al       5.00000000      15.12500000      15.12500000      -0.20273197      -0.00264965       0.17547611
Al       7.02500000      13.10000000      15.12500000       0.33324216       0.00442163       0.64742423
Al       7.02500000      15.12500000      13.10000000      -0.02609212      -0.00213341      -0.50710053
Al       5.00000000      17.15000000       5.00000000      -0.20425108       0.00656709      -0.17668670
Al       5.00000000      19.17500000       7.02500000      -0.60029931       0.03083994       0.23088806
Al       7.02500000      17.15000000       7.02500000       0.05043656      -0.00373324       0.55408094
Al       7.02500000      19.17500000       5.00000000       0.32955412       0.03991532      -0.64775876
Al       4.79286078      17.16031806       9.03050930      -0.00454350      -0.00310974       0.04266699
Al       4.81336208      19.18378018      11.10052330      -0.00401046      -0.00248164      -0.03711880
Al       6.95981715      17.15683459      11.05529816      -0.00087634      -0.00579685      -0.02180690
Al       6.99468862      19.16675298       9.06658822      -0.00476710      -0.00201151       0.02796676
Al       5.00000000      17.15000000      13.10000000      -0.63495913       0.00801477      -0.22892911
Al       5.00000000      19.17500000      15.12500000      -0.19820487       0.03674753       0.17334950
Al       7.02500000      17.15000000      15.12500000       0.33284796       0.00509064       0.64649720
Al       7.02500000      19.17500000      13.10000000       0.08467399       0.04956336      -0.55786302
Al       5.00000000      21.20000000       5.00000000      -0.09709533      -0.45296981      -0.08496445
Al       5.00000000      23.22500000       7.02500000      -0.05006389       0.05006389       0.52666588
Al       7.02500000      21.20000000       7.02500000       0.15185129      -0.15185129       0.66364069
Al       7.02500000      23.22500000       5.00000000       0.45296981       0.09709533      -0.08496445
Al       4.88174049      21.17656191       9.04302366      -0.00613042       0.00179905       0.03816178
Al       4.98110696      23.24389304      11.07708319      -0.01102668       0.01102668      -0.05011092
Al       7.03404755      21.19095245      11.04664055      -0.00564684       0.00564684      -0.02209846
Al       7.04843809      23.34325951       9.04302366      -0.00179905       0.00613042       0.03816178
Al       5.00000000      21.20000000      13.10000000      -0.49240346      -0.24421067      -0.37186666
Al       5.00000000      23.22500000      15.12500000       0.32751795      -0.32751795      -0.33502488
Al       7.02500000      21.20000000      15.12500000       0.32506230      -0.32506230       0.58886171
Al       7.02500000      23.22500000      13.10000000       0.24421067       0.49240346      -0.37186666
Al       9.05000000       5.00000000       5.00000000      -0.03676762      -0.20083598      -0.17520819
Al       9.05000000       7.02500000       7.02500000      -0.05558330       0.06851199       0.54931073
Al      11.07500000       5.00000000       7.02500000      -0.00577015      -0.63588971       0.22942673
Al      11.07500000       7.02500000       5.00000000      -0.00456176       0.33152399      -0.64930813
Al       9.04244769       4.81337310       9.02391070       0.00073056      -0.00628905       0.04098500
Al       9.05264524       6.98606656      11.05906721       0.00010431      -0.00548770      -0.02257201
Al      11.06615990       4.79534650      11.09371212       0.00249799      -0.00552915      -0.03853497
Al      11.07025279       6.96313338       9.06806515       0.00409091      -0.00360935       0.02676962
Al       9.05000000       5.00000000      13.10000000      -0.02873050      -0.61165589      -0.22154952
Al       9.05000000       7.02500000      15.12500000      -0.03857343       0.33067398       0.64606840
Al      11.07500000       5.00000000      15.12500000      -0.00583288      -0.20250109       0.17631323
Al      11.07500000       7.02500000      13.10000000       0.00560440       0.01567970      -0.51820163
Al       9.05000000       9.05000000       5.00000000      -0.03820931      -0.03806213      -0.71259627
Al       9.05000000      11.07500000       7.02500000      -0.10224859       0.02296770       0.41004780
Al      11.07500000       9.05000000       7.02500000      -0.00815318      -0.10258624       0.40045873
Al      11.07500000      11.07500000       5.00000000      -0.00512376      -0.00469828      -0.71400240
Al       9.05238247       9.05369671       9.05248111       0.00273415       0.00616759       0.02740826
Al       9.05667187      11.09885152      11.07574637       0.00446251       0.00740515      -0.02092525
Al      11.07265035       9.02803451      11.07367252       0.00522345       0.00806326      -0.02222376
Al      11.08338811      11.08761781       9.06010782       0.00804062       0.01381426       0.02730500
Al       9.05000000       9.05000000      13.10000000      -0.09648523      -0.07891743      -0.42971246
Al       9.05000000      11.07500000      15.12500000      -0.03716268      -0.00411232       0.71097806
Al      11.07500000       9.05000000      15.12500000      -0.00411801      -0.03741310       0.70885147
Al      11.07500000      11.07500000      13.10000000      -0.00932559       0.02342781      -0.35896328
Al       9.05000000      13.10000000       5.00000000      -0.03813911       0.00366970      -0.71508548
Al       9.05000000      15.12500000       7.02500000      -0.05167556      -0.00085608       0.46120121
Al      11.07500000      13.10000000       7.02500000       0.01101078       0.04485796       0.34797848
Al      11.07500000      15.12500000       5.00000000      -0.00304966      -0.00309335      -0.71441283
Al       9.04028775      13.11144296       9.05924875       0.00865817       0.00269228       0.02723205
Al       9.00431005      15.12531846      11.07717861       0.00921801       0.00056184      -0.01910014
Al      11.14011219      13.17436084      11.09292215       0.00661514      -0.00081227      -0.01072985
Al      11.10716418      15.12573599       9.08320354       0.02524904      -0.00025169       0.03225261
Al       9.05000000      13.10000000      13.10000000      -0.10002553       0.02216017      -0.40953243
Al       9.05000000      15.12500000      15.12500000      -0.03513687      -0.00298051       0.70606970
Al      11.07500000      13.10000000      15.12500000      -0.01198397      -0.00357158       0.72464290
Al      11.07500000      15.12500000      13.10000000       0.37335867       0.00626163      -0.46691993
Al       9.05000000      17.15000000       5.00000000      -0.03831850       0.00570999      -0.71453397
Al       9.05000000      19.17500000       7.02500000      -0.07367287       0.07367287       0.44918467
Al      11.07500000      17.15000000       7.02500000       0.01753453      -0.01753453       0.35813105
Al      11.07500000      19.17500000       5.00000000      -0.00570999       0.03831850      -0.71453397
Al       9.04781933      17.13937756       9.05952931       0.01056945      -0.00701759       0.02923632
Al       9.07049486      19.15450514      11.07583179       0.00549006      -0.00549006      -0.02006220
Al      11.14496873      17.08003127      11.09183123       0.00275786      -0.00275786      -0.01084444
Al      11.08562244      19.17718067       9.05952931       0.00701759      -0.01056945       0.02923632
Al       9.05000000      17.15000000      13.10000000      -0.08671056      -0.00790991      -0.41398459
Al       9.05000000      19.17500000      15.12500000      -0.03765348       0.03765348       0.70985929
Al      11.07500000      17.15000000      15.12500000      -0.01260505       0.01260505       0.72515593
Al      11.07500000      19.17500000      13.10000000       0.00790991       0.08671056      -0.41398459
Al       9.05000000      21.20000000       5.00000000      -0.03991532      -0.32955412      -0.64775876
Al       9.05000000      23.22500000       7.02500000      -0.03083994       0.60029931       0.23088806
Al      11.07500000      21.20000000       7.02500000       0.00373324      -0.05043656       0.55408094
Al      11.07500000      23.22500000       5.00000000      -0.00656709       0.20425108      -0.17668670
Al       9.05824702      21.23031138       9.06658822       0.00201151       0.00476710       0.02796676
Al       9.04121982      23.41163792      11.10052330       0.00248164       0.00401046      -0.03711880
Al      11.06816541      21.26518285      11.05529816       0.00579685       0.00087634      -0.02180690
Al      11.06468194      23.43213922       9.03050930       0.00310974       0.00454350       0.04266699
Al       9.05000000      21.20000000      13.10000000      -0.04956336      -0.08467399      -0.55786302
Al       9.05000000      23.22500000      15.12500000      -0.03674753       0.19820487       0.17334950
Al      11.07500000      21.20000000      15.12500000      -0.00509064      -0.33284796       0.64649720
Al      11.07500000      23.22500000      13.10000000      -0.00801477       0.63495913      -0.22892911
Al      13.10000000       5.00000000       5.00000000       0.00326496      -0.20480451      -0.17677490
Al      13.10000000       7.02500000       7.02500000       0.00394871      -0.00136614       0.52902188
Al      15.12500000       5.00000000       7.02500000       0.00942879      -0.64200792       0.24274827
Al      15.12500000       7.02500000       5.00000000      -0.00351637       0.33203137      -0.64947730
Al      13.09787894       4.78932518       9.02948814       0.00238349      -0.00528622       0.04043082
Al      13.09818624       6.95745010      11.05466270       0.00186059      -0.00337285      -0.02013255
Al      15.12683655       4.78953994      11.09567045       0.00020315      -0.00459543      -0.03710093
Al      15.12774788       6.95621898       9.06975428       0.00055781      -0.00435624       0.02404840
Al      13.10000000       5.00000000      13.10000000      -0.00919861      -0.63685194      -0.24278713
Al      13.10000000       7.02500000      15.12500000       0.00411432       0.33312871       0.64753493
Al      15.12500000       5.00000000      15.12500000      -0.00299041      -0.20258271       0.17537848
Al      15.12500000       7.02500000      13.10000000      -0.00298621       0.00377848      -0.52832204
Al      13.10000000       9.05000000       5.00000000       0.00372646      -0.03832615      -0.71207751
Al      13.10000000      11.07500000       7.02500000      -0.00270241       0.06492464       0.39892779
Al      15.12500000       9.05000000       7.02500000      -0.00241570      -0.11675098       0.39672332
Al      15.12500000      11.07500000       5.00000000      -0.00311777      -0.00478348      -0.71314633
Al      13.10000733       9.02174349       9.04869918       0.00059730       0.00621519       0.02484286
Al      13.10056714      11.04642050      11.07872272       0.00039006       0.01694394      -0.01882433
Al      15.12780542       9.02025996      11.07385996      -0.00023521       0.00619910      -0.02037814
Al      15.11279994      11.08323535       9.05899450      -0.00229575       0.01630698       0.02517241
Al      13.10000000       9.05000000      13.10000000       0.00444726      -0.18276243      -0.33575744
Al      13.10000000      11.07500000      15.12500000       0.00388363      -0.00204716       0.70375447
Al      15.12500000       9.05000000      15.12500000      -0.00340106      -0.03751129       0.70833677
Al      15.12500000      11.07500000      13.10000000      -0.01516439       0.01465708      -0.34276345
Al      13.10000000      13.10000000       5.00000000       0.00359748       0.00575039      -0.71368545
Al      13.10000000      15.12500000       7.02500000      -0.00588265       0.00588265       0.05845804
Al      15.12500000      13.10000000       7.02500000      -0.04394736       0.04394736       0.33511345
Al      15.12500000      15.12500000       5.00000000      -0.00575039      -0.00359748      -0.71368545
Al      13.09814277      13.14162366       9.08419837       0.00222009       0.01950975       0.03024019
Al      15.05053023      13.17446977      11.09368885      -0.00041030       0.00041030      -0.00879476
Al      15.08337634      15.12685723       9.08419837      -0.01950975      -0.00222009       0.03024019
Al      13.10000000      13.10000000      13.10000000      -0.01187141       0.39885518      -0.44778048
Al      13.10000000      15.12500000      15.12500000       0.00366535      -0.00366535       0.86129221
Al      15.12500000      13.10000000      15.12500000       0.00381252      -0.00381252       0.72293515
Al      15.12500000      15.12500000      13.10000000      -0.39885518       0.01187141      -0.44778048
Al      13.10000000      17.15000000       5.00000000       0.00309335       0.00304966      -0.71441283
Al      13.10000000      19.17500000       7.02500000       0.00085608       0.05167556       0.46120121
Al      15.12500000      17.15000000       7.02500000      -0.04485796      -0.01101078       0.34797848
Al      15.12500000      19.17500000       5.00000000      -0.00366970       0.03813911      -0.71508548
Al      13.09926401      17.11783582       9.08320354       0.00025169      -0.02524904       0.03225261
Al      13.09968154      19.22068995      11.07717861      -0.00056184      -0.00921801      -0.01910014
Al      15.05063916      17.08488781      11.09292215       0.00081227      -0.00661514      -0.01072985
Al      15.11355704      19.18471225       9.05924875      -0.00269228      -0.00865817       0.02723205
Al      13.10000000      17.15000000      13.10000000      -0.00626163      -0.37335867      -0.46691993
Al      13.10000000      19.17500000      15.12500000       0.00298051       0.03513687       0.70606970
Al      15.12500000      17.15000000      15.12500000       0.00357158       0.01198397       0.72464290
Al      15.12500000      19.17500000      13.10000000      -0.02216017       0.10002553      -0.40953243
Al      13.10000000      21.20000000       5.00000000       0.00309583      -0.33174095      -0.64990331
Al      13.10000000      23.22500000       7.02500000      -0.01098571       0.64799637       0.23793598
Al      15.12500000      21.20000000       7.02500000      -0.00537460      -0.03855326       0.56536217
Al      15.12500000      23.22500000       5.00000000      -0.00367194       0.20496592      -0.17639404
Al      13.09780096      21.27068055       9.06807390       0.00130497       0.00231696       0.02553873
Al      13.09765204      23.43612718      11.09489533       0.00157612       0.00215910      -0.03651711
Al      15.12936467      21.27212727      11.05355962      -0.00288256       0.00169910      -0.01999031
Al      15.12783412      23.43828062       9.02857368      -0.00167866       0.00343476       0.04102696
Al      13.10000000      21.20000000      13.10000000       0.00213341       0.02609212      -0.50710053
Al      13.10000000      23.22500000      15.12500000       0.00264965       0.20273197       0.17547611
Al      15.12500000      21.20000000      15.12500000      -0.00442163      -0.33324216       0.64742423
Al      15.12500000      23.22500000      13.10000000       0.00839767       0.64184194      -0.24153268
Al      17.15000000       5.00000000       5.00000000       0.00645954      -0.20421483      -0.17733552
Al      17.15000000       7.02500000       7.02500000      -0.00469538       0.03101382       0.53552246
Al      19.17500000       5.00000000       7.02500000       0.03006101      -0.60649352       0.23119755
Al      19.17500000       7.02500000       5.00000000       0.03967425       0.32962237      -0.64771556
Al      17.15899313       4.79443788       9.03139765      -0.00030447      -0.00551647       0.04165965
Al      17.15447808       6.96361280      11.05619856      -0.00225448      -0.00367226      -0.02231966
Al      19.18246354       4.81503065      11.10074719      -0.00006267      -0.00484063      -0.03824031
Al      19.16886177       6.99101902       9.06625631       0.00149515      -0.00660066       0.02521940
Al      17.15000000       5.00000000      13.10000000       0.00609159      -0.63135719      -0.23045040
Al      17.15000000       7.02500000      15.12500000       0.00482624       0.33295279       0.64685380
Al      19.17500000       5.00000000      15.12500000       0.03631621      -0.19820859       0.17381621
Al      19.17500000       7.02500000      13.10000000       0.05299785       0.07150725      -0.54705648
Al      17.15000000       9.05000000       5.00000000       0.00532759      -0.03834267      -0.71257895
Al      17.15000000      11.07500000       7.02500000      -0.00617180       0.00617180       0.35586784
Al      19.17500000       9.05000000       7.02500000       0.09274561      -0.09274561       0.42714081
Al      19.17500000      11.07500000       5.00000000       0.03834267      -0.00532759      -0.71257895
Al      17.14431436       9.04010179       9.05277271      -0.00364531       0.00479514       0.02627408
Al      17.12845862      11.09654138      11.07619112      -0.00749517       0.00749517      -0.01968535
Al      19.16891235       9.05608765      11.07451733      -0.00166958       0.00166958      -0.02171774
Al      19.18489821      11.08068564       9.05277271      -0.00479514       0.00364531       0.02627408
Al      17.15000000       9.05000000      13.10000000       0.00220202      -0.10884164      -0.38683973
Al      17.15000000      11.07500000      15.12500000       0.00465127      -0.00465127       0.70880051
Al      19.17500000       9.05000000      15.12500000       0.03771956      -0.03771956       0.70929739
Al      19.17500000      11.07500000      13.10000000       0.10884164      -0.00220202      -0.38683973
Al      17.15000000      13.10000000       5.00000000       0.00478348       0.00311777      -0.71314633
Al      17.15000000      15.12500000       7.02500000      -0.06492464       0.00270241       0.39892779
Al      19.17500000      13.10000000       7.02500000       0.11675098       0.00241570       0.39672332
Al      19.17500000      15.12500000       5.00000000       0.03832615      -0.00372646      -0.71207751
Al      17.14176465      13.11220006       9.05899450      -0.01630698       0.00229575       0.02517241
Al      17.17857950      15.12443286      11.07872272      -0.01694394      -0.00039006      -0.01882433
Al      19.20474004      13.09719458      11.07385996      -0.00619910       0.00023521      -0.02037814
Al      19.20325651      15.12499267       9.04869918      -0.00621519      -0.00059730       0.02484286
Al      17.15000000      13.10000000      13.10000000      -0.01465708       0.01516439      -0.34276345
Al      17.15000000      15.12500000      15.12500000       0.00204716      -0.00388363       0.70375447
Al      19.17500000      13.10000000      15.12500000       0.03751129       0.00340106       0.70833677
Al      19.17500000      15.12500000      13.10000000       0.18276243      -0.00444726      -0.33575744
Al      17.15000000      17.15000000       5.00000000       0.00469828       0.00512376      -0.71400240
Al      17.15000000      19.17500000       7.02500000      -0.02296770       0.10224859       0.41004780
Al      19.17500000      17.15000000       7.02500000       0.10258624       0.00815318       0.40045873
Al      19.17500000      19.17500000       5.00000000       0.03806213       0.03820931      -0.71259627
Al      17.13738219      17.14161189       9.06010782      -0.01381426      -0.00804062       0.02730500
Al      17.12614848      19.16832813      11.07574637      -0.00740515      -0.00446251      -0.02092525
Al      19.19696549      17.15234965      11.07367252      -0.00806326      -0.00522345      -0.02222376
Al      19.17130329      19.17261753       9.05248111      -0.00616759      -0.00273415       0.02740826
Al      17.15000000      17.15000000      13.10000000      -0.02342781       0.00932559      -0.35896328
Al      17.15000000      19.17500000      15.12500000       0.00411232       0.03716268       0.71097806
Al      19.17500000      17.15000000      15.12500000       0.03741310       0.00411801       0.70885147
Al      19.17500000      19.17500000      13.10000000       0.07891743       0.09648523      -0.42971246
Al      17.15000000      21.20000000       5.00000000       0.00470919      -0.33141083      -0.65039999
Al      17.15000000      23.22500000       7.02500000       0.00795013       0.62231504       0.24140324
Al      19.17500000      21.20000000       7.02500000       0.04918103      -0.07227850       0.55120168
Al      19.17500000      23.22500000       5.00000000       0.03667967       0.20010464      -0.17626248
Al      17.14857701      21.25328920       9.06938425      -0.00593808       0.00295276       0.02773436
Al      17.15987105      23.43082730      11.09312867      -0.00373511       0.00369641      -0.03838664
Al      19.16303153      21.22775497      11.05982774      -0.00248268       0.00692508      -0.02226331
Al      19.18107532      23.40382073       9.02504464      -0.00221991       0.00557455       0.04091990
Al      17.15000000      21.20000000      13.10000000      -0.01307483      -0.04654949      -0.54276368
Al      17.15000000      23.22500000      15.12500000       0.00573921       0.20250037       0.17644628
Al      19.17500000      21.20000000      15.12500000       0.03878392      -0.33059625       0.64692978
Al      19.17500000      23.22500000      13.10000000       0.02874452       0.59899815      -0.23354926
Al      21.20000000       5.00000000       5.00000000      -0.45290842      -0.09746548      -0.08534285
Al      21.20000000       7.02500000       7.02500000      -0.14573372       0.14573372       0.66562651
Al      23.22500000       5.00000000       7.02500000       0.05129105      -0.05129105       0.52321133
Al      23.22500000       7.02500000       5.00000000       0.09746548       0.45290842      -0.08534285
Al      21.17809859       4.87853730       9.04355190       0.00226210      -0.00586803       0.03700658
Al      21.19642986       7.02857014      11.04608449       0.00638734      -0.00638734      -0.02319701
Al      23.24728198       4.97771802      11.07890903       0.01097806      -0.01097806      -0.05189784
Al      23.34646270       7.04690141       9.04355190       0.00586803      -0.00226210       0.03700658
Al      21.20000000       5.00000000      13.10000000      -0.24428788      -0.49898913      -0.36987156
Al      21.20000000       7.02500000      15.12500000      -0.32541997       0.32541997       0.58883608
Al      23.22500000       5.00000000      15.12500000      -0.32668362       0.32668362      -0.33556646
Al      23.22500000       7.02500000      13.10000000       0.49898913       0.24428788      -0.36987156
Al      21.20000000       9.05000000       5.00000000      -0.32962237      -0.03967425      -0.64771556
Al      21.20000000      11.07500000       7.02500000      -0.03101382       0.00469538       0.53552246
Al      23.22500000       9.05000000       7.02500000       0.60649352      -0.03006101       0.23119755
Al      23.22500000      11.07500000       5.00000000       0.20421483      -0.00645954      -0.17733552
Al      21.23398098       9.05613823       9.06625631       0.00660066      -0.00149515       0.02521940
Al      21.26138720      11.07052192      11.05619856       0.00367226       0.00225448      -0.02231966
Al      23.40996935       9.04253646      11.10074719       0.00484063       0.00006267      -0.03824031
Al      23.43056212      11.06600687       9.03139765       0.00551647       0.00030447       0.04165965
Al      21.20000000       9.05000000      13.10000000      -0.07150725      -0.05299785      -0.54705648
Al      21.20000000      11.07500000      15.12500000      -0.33295279      -0.00482624       0.64685380
Al      23.22500000       9.05000000      15.12500000       0.19820859      -0.03631621       0.17381621
Al      23.22500000      11.07500000      13.10000000       0.63135719      -0.00609159      -0.23045040
Al      21.20000000      13.10000000       5.00000000      -0.33203137       0.00351637      -0.64947730
Al      21.20000000      15.12500000       7.02500000       0.00136614      -0.00394871       0.52902188
Al      23.22500000      13.10000000       7.02500000       0.64200792      -0.00942879       0.24274827
Al      23.22500000      15.12500000       5.00000000       0.20480451      -0.00326496      -0.17677490
Al      21.26878102      13.09725212       9.06975428       0.00435624      -0.00055781       0.02404840
Al      21.26754990      15.12681376      11.05466270       0.00337285      -0.00186059      -0.02013255
Al      23.43546006      13.09816345      11.09567045       0.00459543      -0.00020315      -0.03710093
Al      23.43567482      15.12712106       9.02948814       0.00528622      -0.00238349       0.04043082
Al      21.20000000      13.10000000      13.10000000      -0.00377848       0.00298621      -0.52832204
Al      21.20000000      15.12500000      15.12500000      -0.33312871      -0.00411432       0.64753493
Al      23.22500000      13.10000000      15.12500000       0.20258271       0.00299041       0.17537848
Al      23.22500000      15.12500000      13.10000000       0.63685194       0.00919861      -0.24278713
Al      21.20000000      17.15000000       5.00000000      -0.33152399       0.00456176      -0.64930813
Al      21.20000000      19.17500000       7.02500000      -0.06851199       0.05558330       0.54931073
Al      23.22500000      17.15000000       7.02500000       0.63588971       0.00577015       0.22942673
Al      23.22500000      19.17500000       5.00000000       0.20083598       0.03676762      -0.17520819
Al      21.26186662      17.15474721       9.06806515       0.00360935      -0.00409091       0.02676962
Al      21.23893344      19.17235476      11.05906721       0.00548770      -0.00010431      -0.02257201
Al      23.42965350      17.15884010      11.09371212       0.00552915      -0.00249799      -0.03853497
Al      23.41162690      19.18255231       9.02391070       0.00628905      -0.00073056       0.04098500
Al      21.20000000      17.15000000      13.10000000      -0.01567970      -0.00560440      -0.51820163