299
Lattice="28.224999999999998 0.0 0.0 0.0 28.224999999999998 0.0 0.0 0.0 20.125" Properties=species:S:1:pos:R:3:forces:R:3 energy=-16469.30110795459 pbc="T T T"
Al       5.00000000       5.00000000       5.00000000       0.32601375       0.32586028       0.33273502
Al       5.00000000       7.02500000       7.02500000      -0.50023071       0.24446122       0.37638332
Al       7.02500000       5.00000000       7.02500000       0.24120110      -0.50015099       0.37205108
Al       7.02500000       7.02500000       5.00000000       0.32437782       0.32424066      -0.59019688
Al       4.97745764       4.97751042       9.04810169      -0.01039949      -0.00989000       0.04958395
Al       4.88317192       7.04875962      11.08104671      -0.00561032      -0.00263433      -0.03225323
Al       7.04678616       4.87435219      11.08158878      -0.00281119      -0.00524499      -0.03239542
Al       7.02886893       7.02759914       9.07964607      -0.00904187      -0.00866727       0.02604755
Al       5.00000000       5.00000000      13.10000000      -0.05190481      -0.04772630      -0.52426956
Al       5.00000000       7.02500000      15.12500000      -0.09518254       0.45400480       0.08574603
Al       7.02500000       5.00000000      15.12500000       0.45422933      -0.09589457       0.08456898
Al       7.02500000       7.02500000      13.10000000       0.14777016       0.14915848      -0.66393425
Al       5.00000000       9.05000000       5.00000000      -0.19917542      -0.03707732      -0.17650180
Al       5.00000000      11.07500000       7.02500000      -0.62018644      -0.00759298       0.24053979
Al       7.02500000       9.05000000       7.02500000       0.07400978      -0.04834211       0.54844288
Al       7.02500000      11.07500000       5.00000000       0.33158703      -0.00545086      -0.64940581
Al       4.82150179       9.04436208       9.02541536      -0.00611845       0.00054508       0.03773578
Al       4.79475696      11.06526527      11.09236518      -0.00473274       0.00280315      -0.03389134
Al       6.99784402       9.06251605      11.05970861      -0.00725876       0.00110813      -0.02018244
Al       6.97241382      11.07664339       9.06931367      -0.00223694       0.00555530       0.02542619
Al       5.00000000       9.05000000      13.10000000      -0.59700690      -0.02720519      -0.23296736
Al       5.00000000      11.07500000      15.12500000      -0.20202692      -0.00650462       0.17712049
Al       7.02500000       9.05000000      15.12500000       0.33065830      -0.03956277       0.64613548
Al       7.02500000      11.07500000      13.10000000       0.04860954       0.01339956      -0.54206527
Al       5.00000000      13.10000000       5.00000000      -0.20424041       0.00294034      -0.17707542
Al       5.00000000      15.12500000       7.02500000      -0.64580030       0.00961910       0.23825380
Al       7.02500000      13.10000000       7.02500000       0.04136270       0.00474071       0.56396318
Al       7.02500000      15.12500000       5.00000000       0.33170011      -0.00390836      -0.64946704
Al       4.78744664      13.09711812       9.02920176      -0.00539701       0.00125671       0.03621398
Al       4.78967719      15.12727364      11.09398761      -0.00452093      -0.00194564      -0.03114883
Al       6.95370326      13.09574211      11.05328032      -0.00207668       0.00154227      -0.01551126
Al       6.95514736      15.12704701       9.06816600      -0.00231484      -0.00098984       0.02143620
Al       5.00000000      13.10000000      13.10000000      -0.63939633      -0.00880171      -0.24315799
Al       5.00000000      15.12500000      15.12500000      -0.20266484      -0.00318853       0.17650677
Al       7.02500000      13.10000000      15.12500000       0.33291411       0.00346850       0.64672061
Al       7.02500000      15.12500000      13.10000000      -0.02366558      -0.00376663      -0.50721986
Al       5.00000000      17.15000000       5.00000000      -0.20397754       0.00644149      -0.17780093
Al       5.00000000      19.17500000       7.02500000      -0.59888434       0.02904978       0.22924085
Al       7.02500000      17.15000000       7.02500000       0.05275893      -0.00549724       0.55240185
Al       7.02500000      19.17500000       5.00000000       0.32925501       0.04033069      -0.64780206
Al       4.79344701      17.16014452       9.03104058      -0.00631138      -0.00296488       0.03851601
Al       4.81377974      19.18334072      11.09987147      -0.00536587      -0.00116261      -0.03358073
Al       6.96066114      17.15654576      11.05511915      -0.00126861      -0.00582910      -0.01864336
Al       6.99551704      19.16623644       9.06656018      -0.00629350      -0.00143405       0.02562918
Al       5.00000000      17.15000000      13.10000000      -0.63346354       0.00629195      -0.22959699
Al       5.00000000      19.17500000      15.12500000      -0.19823410       0.03709233       0.17460270
Al       7.02500000      17.15000000      15.12500000       0.33204996       0.00493894       0.64652413
Al       7.02500000      19.17500000      13.10000000       0.08611816       0.04833711      -0.55645879
Al       5.00000000      21.20000000       5.00000000      -0.09654297      -0.45321871      -0.08592345
Al       5.00000000      23.22500000       7.02500000      -0.05024549       0.05024549       0.52741293
Al       7.02500000      21.20000000       7.02500000       0.15305803      -0.15305803       0.66146180
Al       7.02500000      23.22500000       5.00000000       0.45321871       0.09654297      -0.08592345
Al       4.88184536      21.17599490       9.04321865      -0.00621592       0.00269823       0.03596534
Al       4.98117577      23.24382423      11.07535727      -0.00995204       0.00995204      -0.04667102
Al       7.03470339      21.19029661      11.04642254      -0.00815693       0.00815693      -0.02048649
Al       7.04900510      23.34315464       9.04321865      -0.00269823       0.00621592       0.03596534
Al       5.00000000      21.20000000      13.10000000      -0.49154917      -0.24388827      -0.37372980
Al       5.00000000      23.22500000      15.12500000       0.32760635      -0.32760635      -0.33240924
Al       7.02500000      21.20000000      15.12500000       0.32468583      -0.32468583       0.58918432
Al       7.02500000      23.22500000      13.10000000       0.24388827       0.49154917      -0.37372980
Al       9.05000000       5.00000000       5.00000000      -0.03661967      -0.19979242      -0.17525987
Al       9.05000000       7.02500000       7.02500000      -0.05488885       0.07054484       0.54721617
Al      11.07500000       5.00000000       7.02500000      -0.00501584      -0.63308249       0.22923215
Al      11.07500000       7.02500000       5.00000000      -0.00412782       0.33171177      -0.64784215
Al       9.04264331       4.81380444       9.02431436       0.00017096      -0.00595883       0.03781304
Al       9.05282697       6.98691401      11.05892028       0.00084404      -0.00739269      -0.02069788
Al      11.06606941       4.79585678      11.09292334       0.00305758      -0.00453045      -0.03457920
Al      11.07014127       6.96391121       9.06791624       0.00531847      -0.00355725       0.02573488
Al       9.05000000       5.00000000      13.10000000      -0.02747412      -0.60891281      -0.22191552
Al       9.05000000       7.02500000      15.12500000      -0.03862822       0.33055901       0.64524171
Al      11.07500000       5.00000000      15.12500000      -0.00550258      -0.20161854       0.17669523
Al      11.07500000       7.02500000      13.10000000       0.00663495       0.01807473      -0.51882038
Al       9.05000000       9.05000000       5.00000000      -0.03821757      -0.03868647      -0.71110868
Al       9.05000000      11.07500000       7.02500000      -0.10071112       0.02391426       0.40882491
Al      11.07500000       9.05000000       7.02500000      -0.00684669      -0.10084024       0.39980938
Al      11.07500000      11.07500000       5.00000000      -0.00420536      -0.00533155      -0.71231158
Al       9.05254620       9.05425905       9.05232946       0.00497827       0.00594773       0.02662356
Al       9.05691729      11.09928463      11.07558368       0.00655192       0.00549710      -0.01926006
Al      11.07259946       9.02867775      11.07346457       0.00699773       0.00801219      -0.02118881
Al      11.08330156      11.08808696       9.06012993       0.01136743       0.01290661       0.02681591
Al       9.05000000       9.05000000      13.10000000      -0.09507048      -0.07748676      -0.42910876
Al       9.05000000      11.07500000      15.12500000      -0.03740636      -0.00516712       0.70972920
Al      11.07500000       9.05000000      15.12500000      -0.00343168      -0.03831541       0.70738636
Al      11.07500000      11.07500000      13.10000000      -0.00791711       0.02346861      -0.36055021
Al       9.05000000      13.10000000       5.00000000      -0.03808734       0.00277221      -0.71394066
Al       9.05000000      15.12500000       7.02500000      -0.04959824      -0.00243415       0.46067577
Al      11.07500000      13.10000000       7.02500000       0.01295195       0.04471449       0.34889102
Al      11.07500000      15.12500000       5.00000000      -0.00229743      -0.00435628      -0.71356610
Al       9.04072736      13.11175590       9.05939593       0.00966443       0.00028838       0.02334541
Al       9.00481615      15.12512791      11.07694352       0.00883548       0.00132674      -0.01498100
Al      11.13981692      13.17460974      11.09287333       0.01129203      -0.00443648      -0.00894674
Al      11.10742924      15.12568664       9.08367720       0.02619890       0.00005726       0.02854768
Al       9.05000000      13.10000000      13.10000000      -0.09943615       0.02136129      -0.40928725
Al       9.05000000      15.12500000      15.12500000      -0.03587447      -0.00410463       0.70540475
Al      11.07500000      13.10000000      15.12500000      -0.01137906      -0.00502330       0.72319560
Al      11.07500000      15.12500000      13.10000000       0.37475448       0.00467775      -0.46855118
Al       9.05000000      17.15000000       5.00000000      -0.03867269       0.00521706      -0.71429345
Al       9.05000000      19.17500000       7.02500000      -0.07169314       0.07169314       0.44716749
Al      11.07500000      17.15000000       7.02500000       0.01968162      -0.01968162       0.35876755
Al      11.07500000      19.17500000       5.00000000      -0.00521706       0.03867269      -0.71429345
Al       9.04839186      17.13900639       9.05966764       0.01102062      -0.00691778       0.02653859
Al       9.07102575      19.15397425      11.07576756       0.00550394      -0.00550394      -0.01861728
Al      11.14508147      17.07991853      11.09179708       0.00468624      -0.00468624      -0.00959420
Al      11.08599361      19.17660814       9.05966764       0.00691778      -0.01102062       0.02653859
Al       9.05000000      17.15000000      13.10000000      -0.08605168      -0.01002163      -0.41382147
Al       9.05000000      19.17500000      15.12500000      -0.03849982       0.03849982       0.70987891
Al      11.07500000      17.15000000      15.12500000      -0.01234136       0.01234136       0.72493405
Al      11.07500000      19.17500000      13.10000000       0.01002163       0.08605168      -0.41382147
Al       9.05000000      21.20000000       5.00000000      -0.04033069      -0.32925501      -0.64780206
Al       9.05000000      23.22500000       7.02500000      -0.02904978       0.59888434       0.22924085
Al      11.07500000      21.20000000       7.02500000       0.00549724      -0.05275893       0.55240185
Al      11.07500000      23.22500000       5.00000000      -0.00644149       0.20397754      -0.17780093
Al       9.05876356      21.22948296       9.06656018       0.00143405       0.00629350       0.02562918
Al       9.04165928      23.41122026      11.09987147       0.00116261       0.00536587      -0.03358073
Al      11.06845424      21.26433886      11.05511915       0.00582910       0.00126861      -0.01864336
Al      11.06485548      23.43155299       9.03104058       0.00296488       0.00631138       0.03851601
Al       9.05000000      21.20000000      13.10000000      -0.04833711      -0.08611816      -0.55645879
Al       9.05000000      23.22500000      15.12500000      -0.03709233       0.19823410       0.17460270
Al      11.07500000      21.20000000      15.12500000      -0.00493894      -0.33204996       0.64652413
Al      11.07500000      23.22500000      13.10000000      -0.00629195       0.63346354      -0.22959699
Al      13.10000000       5.00000000       5.00000000       0.00369370      -0.20349905      -0.17657771
Al      13.10000000       7.02500000       7.02500000       0.00457014       0.00121213       0.52839964
Al      15.12500000       5.00000000       7.02500000       0.00918160      -0.63877376       0.24315809
Al      15.12500000       7.02500000       5.00000000      -0.00316891       0.33268148      -0.64738356
Al      13.09774868       4.78985863       9.03000911       0.00274887      -0.00411291       0.03641959
Al      13.09804332       6.95820633      11.05433321       0.00246621      -0.00349087      -0.01746072
Al      15.12678133       4.79000021      11.09471990       0.00049862      -0.00273135      -0.03246809
Al      15.12762496       6.95688706       9.06959188       0.00099119      -0.00384616       0.02301296
Al      13.10000000       5.00000000      13.10000000      -0.00846507      -0.63339677      -0.24518060
Al      13.10000000       7.02500000      15.12500000       0.00493806       0.33327744       0.64621518
Al      15.12500000       5.00000000      15.12500000      -0.00252657      -0.20120104       0.17550219
Al      15.12500000       7.02500000      13.10000000      -0.00300809       0.00650068      -0.52976654
Al      13.10000000       9.05000000       5.00000000       0.00471347      -0.03845365      -0.70977760
Al      13.10000000      11.07500000       7.02500000      -0.00189613       0.06656170       0.40038258
Al      15.12500000       9.05000000       7.02500000      -0.00262894      -0.11478719       0.39609181
Al      15.12500000      11.07500000       5.00000000      -0.00245853      -0.00504430      -0.71028930
Al      13.09993107       9.02227883       9.04861487       0.00029625       0.00712423       0.02382770
Al      13.10038253      11.04680360      11.07849711       0.00155323       0.01741959      -0.01785466
Al      15.12743653       9.02081534      11.07354401       0.00205305       0.00666897      -0.01847026
Al      15.11239371      11.08353414       9.05894389      -0.00021953       0.01848317       0.02551534
Al      13.10000000       9.05000000      13.10000000       0.00533129      -0.18113513      -0.33740499
Al      13.10000000      11.07500000      15.12500000       0.00525543      -0.00314940       0.70154743
Al      15.12500000       9.05000000      15.12500000      -0.00263111      -0.03789189       0.70619381
Al      15.12500000      11.07500000      13.10000000      -0.01508713       0.01510947      -0.34537185
Al      13.10000000      13.10000000       5.00000000       0.00497474       0.00469320      -0.71161816
Al      13.10000000      15.12500000       7.02500000      -0.00461943       0.00461943       0.05969053
Al      15.12500000      13.10000000       7.02500000      -0.04420238       0.04420238       0.33776003
Al      15.12500000      15.12500000       5.00000000      -0.00469320      -0.00497474      -0.71161816
Al      13.09791472      13.14229413       9.08464836       0.00439409       0.01381959       0.02822294
Al      15.05025016      13.17474984      11.09361501       0.00222425      -0.00222425      -0.00894147
Al      15.08270587      15.12708528       9.08464836      -0.01381959      -0.00439409       0.02822294
Al      13.10000000      13.10000000      13.10000000      -0.01100537       0.39730052      -0.45068173
Al      13.10000000      15.12500000      15.12500000       0.00516083      -0.00516083       0.85977244
Al      15.12500000      13.10000000      15.12500000       0.00515638      -0.00515638       0.72030027
Al      15.12500000      15.12500000      13.10000000      -0.39730052       0.01100537      -0.45068173
Al      13.10000000      17.15000000       5.00000000       0.00435628       0.00229743      -0.71356610
Al      13.10000000      19.17500000       7.02500000       0.00243415       0.04959824       0.46067577
Al      15.12500000      17.15000000       7.02500000      -0.04471449      -0.01295195       0.34889102
Al      15.12500000      19.17500000       5.00000000      -0.00277221       0.03808734      -0.71394066
Al      13.09931336      17.11757076       9.08367720      -0.00005726      -0.02619890       0.02854768
Al      13.09987209      19.22018385      11.07694352      -0.00132674      -0.00883548      -0.01498100
Al      15.05039026      17.08518308      11.09287333       0.00443648      -0.01129203      -0.00894674
Al      15.11324410      19.18427264       9.05939593      -0.00028838      -0.00966443       0.02334541
Al      13.10000000      17.15000000      13.10000000      -0.00467775      -0.37475448      -0.46855118
Al      13.10000000      19.17500000      15.12500000       0.00410463       0.03587447       0.70540475
Al      15.12500000      17.15000000      15.12500000       0.00502330       0.01137906       0.72319560
Al      15.12500000      19.17500000      13.10000000      -0.02136129       0.09943615      -0.40928725
Al      13.10000000      21.20000000       5.00000000       0.00390836      -0.33170011      -0.64946704
Al      13.10000000      23.22500000       7.02500000      -0.00961910       0.64580030       0.23825380
Al      15.12500000      21.20000000       7.02500000      -0.00474071      -0.04136270       0.56396318
Al      15.12500000      23.22500000       5.00000000      -0.00294034       0.20424041      -0.17707542
Al      13.09795299      21.26985264       9.06816600       0.00098984       0.00231484       0.02143620
Al      13.09772636      23.43532281      11.09398761       0.00194564       0.00452093      -0.03114883
Al      15.12925789      21.27129674      11.05328032      -0.00154227       0.00207668      -0.01551126
Al      15.12788188      23.43755336       9.02920176      -0.00125671       0.00539701       0.03621398
Al      13.10000000      21.20000000      13.10000000       0.00376663       0.02366558      -0.50721986
Al      13.10000000      23.22500000      15.12500000       0.00318853       0.20266484       0.17650677
Al      15.12500000      21.20000000      15.12500000      -0.00346850      -0.33291411       0.64672061
Al      15.12500000      23.22500000      13.10000000       0.00880171       0.63939633      -0.24315799
Al      17.15000000       5.00000000       5.00000000       0.00650508      -0.20292146      -0.17690688
Al      17.15000000       7.02500000       7.02500000      -0.00545002       0.03308686       0.53402040
Al      19.17500000       5.00000000       7.02500000       0.02853369      -0.60393500       0.22968300
Al      19.17500000       7.02500000       5.00000000       0.03939233       0.33031778      -0.64578403
Al      17.15893215       4.79472944       9.03174904      -0.00023983      -0.00362507       0.03824975
Al      17.15434744       6.96416648      11.05593717      -0.00284543      -0.00272125      -0.02106197
Al      19.18214879       4.81515435      11.10001507       0.00082476      -0.00283870      -0.03485035
Al      19.16859045       6.99155504       9.06594366       0.00105697      -0.00714050       0.02514975
Al      17.15000000       5.00000000      13.10000000       0.00522596      -0.62826934      -0.23167709
Al      17.15000000       7.02500000      15.12500000       0.00502799       0.33344449       0.64552071
Al      19.17500000       5.00000000      15.12500000       0.03619576      -0.19694386       0.17402118
Al      19.17500000       7.02500000      13.10000000       0.05186942       0.07327380      -0.54683444
Al      17.15000000       9.05000000       5.00000000       0.00529401      -0.03813756      -0.70988542
Al      17.15000000      11.07500000       7.02500000      -0.00763098       0.00763098       0.35634955
Al      19.17500000       9.05000000       7.02500000       0.09105297      -0.09105297       0.42487164
Al      19.17500000      11.07500000       5.00000000       0.03813756      -0.00529401      -0.70988542
Al      17.14408253       9.04048987       9.05250544      -0.00423045       0.00670832       0.02745887
Al      17.12815940      11.09684060      11.07597001      -0.00797558       0.00797558      -0.02052818
Al      19.16861024       9.05638976      11.07432681      -0.00318328       0.00318328      -0.02153335
Al      19.18451013      11.08091747       9.05250544      -0.00670832       0.00423045       0.02745887
Al      17.15000000       9.05000000      13.10000000       0.00090065      -0.10719585      -0.38815757
Al      17.15000000      11.07500000      15.12500000       0.00518827      -0.00518827       0.70644164
Al      19.17500000       9.05000000      15.12500000       0.03775097      -0.03775097       0.70771709
Al      19.17500000      11.07500000      13.10000000       0.10719585      -0.00090065      -0.38815757
Al      17.15000000      13.10000000       5.00000000       0.00504430       0.00245853      -0.71028930
Al      17.15000000      15.12500000       7.02500000      -0.06656170       0.00189613       0.40038258
Al      19.17500000      13.10000000       7.02500000       0.11478719       0.00262894       0.39609181
Al      19.17500000      15.12500000       5.00000000       0.03845365      -0.00471347      -0.70977760
Al      17.14146586      13.11260629       9.05894389      -0.01848317       0.00021953       0.02551534
Al      17.17819640      15.12461747      11.07849711      -0.01741959      -0.00155323      -0.01785466
Al      19.20418466      13.09756347      11.07354401      -0.00666897      -0.00205305      -0.01847026
Al      19.20272117      15.12506893       9.04861487      -0.00712423      -0.00029625       0.02382770
Al      17.15000000      13.10000000      13.10000000      -0.01510947       0.01508713      -0.34537185
Al      17.15000000      15.12500000      15.12500000       0.00314940      -0.00525543       0.70154743
Al      19.17500000      13.10000000      15.12500000       0.03789189       0.00263111       0.70619381
Al      19.17500000      15.12500000      13.10000000       0.18113513      -0.00533129      -0.33740499
Al      17.15000000      17.15000000       5.00000000       0.00533155       0.00420536      -0.71231158
Al      17.15000000      19.17500000       7.02500000      -0.02391426       0.10071112       0.40882491
Al      19.17500000      17.15000000       7.02500000       0.10084024       0.00684669       0.39980938
Al      19.17500000      19.17500000       5.00000000       0.03868647       0.03821757      -0.71110868
Al      17.13691304      17.14169844       9.06012993      -0.01290661      -0.01136743       0.02681591
Al      17.12571537      19.16808271      11.07558368      -0.00549710      -0.00655192      -0.01926006
Al      19.19632225      17.15240054      11.07346457      -0.00801219      -0.00699773      -0.02118881
Al      19.17074095      19.17245380       9.05232946      -0.00594773      -0.00497827       0.02662356
Al      17.15000000      17.15000000      13.10000000      -0.02346861       0.00791711      -0.36055021
Al      17.15000000      19.17500000      15.12500000       0.00516712       0.03740636       0.70972920
Al      19.17500000      17.15000000      15.12500000       0.03831541       0.00343168       0.70738636
Al      19.17500000      19.17500000      13.10000000       0.07748676       0.09507048      -0.42910876
Al      17.15000000      21.20000000       5.00000000       0.00545086      -0.33158703      -0.64940581
Al      17.15000000      23.22500000       7.02500000       0.00759298       0.62018644       0.24053979
Al      19.17500000      21.20000000       7.02500000       0.04834211      -0.07400978       0.54844288
Al      19.17500000      23.22500000       5.00000000       0.03707732       0.19917542      -0.17650180
Al      17.14835661      21.25258618       9.06931367      -0.00555530       0.00223694       0.02542619
Al      17.15973473      23.43024304      11.09236518      -0.00280315       0.00473274      -0.03389134
Al      19.16248395      21.22715598      11.05970861      -0.00110813       0.00725876      -0.02018244
Al      19.18063792      23.40349821       9.02541536      -0.00054508       0.00611845       0.03773578
Al      17.15000000      21.20000000      13.10000000      -0.01339956      -0.04860954      -0.54206527
Al      17.15000000      23.22500000      15.12500000       0.00650462       0.20202692       0.17712049
Al      19.17500000      21.20000000      15.12500000       0.03956277      -0.33065830       0.64613548
Al      19.17500000      23.22500000      13.10000000       0.02720519       0.59700690      -0.23296736
Al      21.20000000       5.00000000       5.00000000      -0.45367854      -0.09651528      -0.08507604
Al      21.20000000       7.02500000       7.02500000      -0.14692414       0.14692414       0.66429561
Al      23.22500000       5.00000000       7.02500000       0.05044909      -0.05044909       0.52427863
Al      23.22500000       7.02500000       5.00000000       0.09651528       0.45367854      -0.08507604
Al      21.17762534       4.87848211       9.04367077       0.00294102      -0.00394949       0.03477675
Al      21.19602918       7.02897082      11.04574656       0.00772819      -0.00772819      -0.02228326
Al      23.24733833       4.97766167      11.07707075       0.00800705      -0.00800705      -0.04795271
Al      23.34651789       7.04737466       9.04367077       0.00394949      -0.00294102       0.03477675
Al      21.20000000       5.00000000      13.10000000      -0.24412490      -0.49677687      -0.37279721
Al      21.20000000       7.02500000      15.12500000      -0.32605823       0.32605823       0.58821295
Al      23.22500000       5.00000000      15.12500000      -0.32762590       0.32762590      -0.33375411
Al      23.22500000       7.02500000      13.10000000       0.49677687       0.24412490      -0.37279721
Al      21.20000000       9.05000000       5.00000000      -0.33031778      -0.03939233      -0.64578403
Al      21.20000000      11.07500000       7.02500000      -0.03308686       0.00545002       0.53402040
Al      23.22500000       9.05000000       7.02500000       0.60393500      -0.02853369       0.22968300
Al      23.22500000      11.07500000       5.00000000       0.20292146      -0.00650508      -0.17690688
Al      21.23344496       9.05640955       9.06594366       0.00714050      -0.00105697       0.02514975
Al      21.26083352      11.07065256      11.05593717       0.00272125       0.00284543      -0.02106197
Al      23.40984565       9.04285121      11.10001507       0.00283870      -0.00082476      -0.03485035
Al      23.43027056      11.06606785       9.03174904       0.00362507       0.00023983       0.03824975
Al      21.20000000       9.05000000      13.10000000      -0.07327380      -0.05186942      -0.54683444
Al      21.20000000      11.07500000      15.12500000      -0.33344449      -0.00502799       0.64552071
Al      23.22500000       9.05000000      15.12500000       0.19694386      -0.03619576       0.17402118
Al      23.22500000      11.07500000      13.10000000       0.62826934      -0.00522596      -0.23167709
Al      21.20000000      13.10000000       5.00000000      -0.33268148       0.00316891      -0.64738356
Al      21.20000000      15.12500000       7.02500000      -0.00121213      -0.00457014       0.52839964
Al      23.22500000      13.10000000       7.02500000       0.63877376      -0.00918160       0.24315809
Al      23.22500000      15.12500000       5.00000000       0.20349905      -0.00369370      -0.17657771
Al      21.26811294      13.09737504       9.06959188       0.00384616      -0.00099119       0.02301296
Al      21.26679367      15.12695668      11.05433321       0.00349087      -0.00246621      -0.01746072
Al      23.43499979      13.09821867      11.09471990       0.00273135      -0.00049862      -0.03246809
Al      23.43514137      15.12725132       9.03000911       0.00411291      -0.00274887       0.03641959
Al      21.20000000      13.10000000      13.10000000      -0.00650068       0.00300809      -0.52976654
Al      21.20000000      15.12500000      15.12500000      -0.33327744      -0.00493806       0.64621518
Al      23.22500000      13.10000000      15.12500000       0.20120104       0.00252657       0.17550219
Al      23.22500000      15.12500000      13.10000000       0.63339677       0.00846507      -0.24518060
Al      21.20000000      17.15000000       5.00000000      -0.33171177       0.00412782      -0.64784215
Al      21.20000000      19.17500000       7.02500000      -0.07054484       0.05488885       0.54721617
Al      23.22500000      17.15000000       7.02500000       0.63308249       0.00501584       0.22923215
Al      23.22500000      19.17500000       5.00000000       0.19979242       0.03661967      -0.17525987
Al      21.26108879      17.15485873       9.06791624       0.00355725      -0.00531847       0.02573488
Al      21.23808599      19.17217303      11.05892028       0.00739269      -0.00084404      -0.02069788
Al      23.42914322      17.15893059      11.09292334       0.00453045      -0.00305758      -0.03457920
Al      23.41119556      19.18235669       9.02431436       0.00595883      -0.00017096       0.03781304
Al      21.20000000      17.15000000      13.10000000      -0.01807473      -0.00663495      -0.51882038