299
Lattice="28.224999999999998 0.0 0.0 0.0 28.224999999999998 0.0 0.0 0.0 20.125" Properties=species:S:1:pos:R:3:forces:R:3 energy=-16469.310100934243 pbc="T T T"
Al       5.00000000       5.00000000       5.00000000       0.33208480       0.33212073       0.34406559
Al       5.00000000       7.02500000       7.02500000      -0.48288245       0.24499217       0.36591803
Al       7.02500000       5.00000000       7.02500000       0.24013909      -0.48260292       0.36231540
Al       7.02500000       7.02500000       5.00000000       0.31204823       0.31267042      -0.55566162
Al       4.97754319       4.97800572       9.04918751      -0.01013008      -0.01005084       0.07062616
Al       4.88238231       7.04860991      11.07983403      -0.01204040      -0.00792097      -0.03556075
Al       7.04637319       4.87414369      11.08031025      -0.00906428      -0.01276962      -0.03598148
Al       7.02821253       7.02716501       9.08202567      -0.01633521      -0.01428720      -0.01165452
Al       5.00000000       5.00000000      13.10000000      -0.04789943      -0.04317387      -0.51817324
Al       5.00000000       7.02500000      15.12500000      -0.09408195       0.44836893       0.06449283
Al       7.02500000       5.00000000      15.12500000       0.44800040      -0.09465361       0.06347580
Al       7.02500000       7.02500000      13.10000000       0.14570334       0.14857111      -0.66005357
Al       5.00000000       9.05000000       5.00000000      -0.20192125      -0.04402033      -0.15313868
Al       5.00000000      11.07500000       7.02500000      -0.60576050      -0.01294896       0.23626298
Al       7.02500000       9.05000000       7.02500000       0.06936256      -0.05697981       0.55094665
Al       7.02500000      11.07500000       5.00000000       0.31523109      -0.01062202      -0.61228619
Al       4.82058128       9.04382903       9.02686828      -0.01143819      -0.00128766       0.03841105
Al       4.79379574      11.06497827      11.09089198      -0.01069202       0.00015092      -0.03901070
Al       6.99708387       9.06203603      11.05742571      -0.01625983      -0.00112701       0.01780578
Al       6.97189743      11.07622305       9.07150498      -0.01499934       0.00147728      -0.01318237
Al       5.00000000       9.05000000      13.10000000      -0.58221231      -0.03269899      -0.22681921
Al       5.00000000      11.07500000      15.12500000      -0.20763057      -0.01128773       0.15417906
Al       7.02500000       9.05000000      15.12500000       0.31491784      -0.04934012       0.61021623
Al       7.02500000      11.07500000      13.10000000       0.04462610       0.00788437      -0.54832143
Al       5.00000000      13.10000000       5.00000000      -0.20956147       0.00196568      -0.15348803
Al       5.00000000      15.12500000       7.02500000      -0.63153340       0.01296564       0.23425477
Al       7.02500000      13.10000000       7.02500000       0.03629147       0.00338038       0.56805605
Al       7.02500000      15.12500000       5.00000000       0.31560586      -0.00072484      -0.61211889
Al       4.78677145      13.09709500       9.03044997      -0.01126114       0.00056448       0.04096959
Al       4.78893469      15.12746727      11.09255731      -0.00953438      -0.00094921      -0.03766906
Al       6.95329128      13.09539259      11.05084190      -0.01388874       0.00313236       0.02075829
Al       6.95486493      15.12742845       9.07019667      -0.01623994      -0.00109340      -0.01529417
Al       5.00000000      13.10000000      13.10000000      -0.62586901      -0.01021889      -0.24115944
Al       5.00000000      15.12500000      15.12500000      -0.20803611      -0.00070503       0.15376742
Al       7.02500000      13.10000000      15.12500000       0.31858500       0.00319619       0.61073095
Al       7.02500000      15.12500000      13.10000000      -0.02509845      -0.00025207      -0.51406205
Al       5.00000000      17.15000000       5.00000000      -0.20765878       0.01160151      -0.15360533
Al       5.00000000      19.17500000       7.02500000      -0.58252380       0.03438333       0.22145861
Al       7.02500000      17.15000000       7.02500000       0.04820912       0.00198069       0.55470290
Al       7.02500000      19.17500000       5.00000000       0.31552059       0.04963659      -0.61010152
Al       4.79278748      17.16056222       9.03238043      -0.01194630      -0.00057798       0.04166183
Al       4.81301474      19.18405917      11.09830547      -0.01000853      -0.00037815      -0.03609945
Al       6.96002269      17.15708184      11.05267348      -0.01153059      -0.00257789       0.01885158
Al       6.99473539      19.16682460       9.06846335      -0.01251586       0.00070826      -0.01212183
Al       5.00000000      17.15000000      13.10000000      -0.61837958       0.01257102      -0.22679748
Al       5.00000000      19.17500000      15.12500000      -0.20084042       0.04398467       0.15187321
Al       7.02500000      17.15000000      15.12500000       0.31870085       0.01055088       0.60970652
Al       7.02500000      19.17500000      13.10000000       0.08376714       0.05628179      -0.56023108
Al       5.00000000      21.20000000       5.00000000      -0.09392175      -0.44865657      -0.06437802
Al       5.00000000      23.22500000       7.02500000      -0.04499734       0.04499734       0.52037414
Al       7.02500000      21.20000000       7.02500000       0.15344192      -0.15344192       0.65496522
Al       7.02500000      23.22500000       5.00000000       0.44865657       0.09392175      -0.06437802
Al       4.88156647      21.17630282       9.04446853      -0.01289835       0.00738186       0.03766148
Al       4.98151536      23.24348464      11.07431795      -0.00977475       0.00977475      -0.06860164
Al       7.03408358      21.19091642      11.04404642      -0.01239854       0.01239854       0.01502228
Al       7.04869718      23.34343353       9.04446853      -0.00738186       0.01289835       0.03766148
Al       5.00000000      21.20000000      13.10000000      -0.47433988      -0.24414376      -0.36402568
Al       5.00000000      23.22500000      15.12500000       0.33345543      -0.33345543      -0.34328294
Al       7.02500000      21.20000000      15.12500000       0.31366308      -0.31366308       0.55535140
Al       7.02500000      23.22500000      13.10000000       0.24414376       0.47433988      -0.36402568
Al       9.05000000       5.00000000       5.00000000      -0.04485477      -0.20269165      -0.15243127
Al       9.05000000       7.02500000       7.02500000      -0.06569801       0.06694878       0.54918303
Al      11.07500000       5.00000000       7.02500000      -0.01267586      -0.61970283       0.22506759
Al      11.07500000       7.02500000       5.00000000      -0.01181675       0.31555035      -0.61168192
Al       9.04195556       4.81334846       9.02590739      -0.00279875      -0.01314438       0.03809008
Al       9.05234170       6.98625834      11.05667604      -0.00393154      -0.01466595       0.01780821
Al      11.06574020       4.79534607      11.09135951      -0.00155743      -0.01379489      -0.03836283
Al      11.06976099       6.96354390       9.07018801      -0.00106252      -0.01646117      -0.01517019
Al       9.05000000       5.00000000      13.10000000      -0.03481935      -0.59454992      -0.21602722
Al       9.05000000       7.02500000      15.12500000      -0.05025325       0.31524715       0.60944354
Al      11.07500000       5.00000000      15.12500000      -0.01224295      -0.20827006       0.15440167
Al      11.07500000       7.02500000      13.10000000      -0.00243991       0.01405400      -0.52390135
Al       9.05000000       9.05000000       5.00000000      -0.05067482      -0.04931379      -0.67221272
Al       9.05000000      11.07500000       7.02500000      -0.11153760       0.01752462       0.41750809
Al      11.07500000       9.05000000       7.02500000      -0.01578689      -0.11002516       0.40775378
Al      11.07500000      11.07500000       5.00000000      -0.01223206      -0.01032240      -0.67185044
Al       9.05233122       9.05392035       9.05449709      -0.00532961      -0.00022508      -0.01734237
Al       9.05686001      11.09890992      11.07298923      -0.00449040       0.00250580       0.02618889
Al      11.07238744       9.02834154      11.07088442      -0.00097851       0.00094480       0.02534142
Al      11.08326691      11.08770113       9.06221224       0.00072860       0.01050744      -0.01927400
Al       9.05000000       9.05000000      13.10000000      -0.10560347      -0.08590568      -0.43970038
Al       9.05000000      11.07500000      15.12500000      -0.04800022      -0.00824475       0.67092923
Al      11.07500000       9.05000000      15.12500000      -0.01104708      -0.04710562       0.66923934
Al      11.07500000      11.07500000      13.10000000      -0.01593184       0.01862478      -0.37102022
Al       9.05000000      13.10000000       5.00000000      -0.05040668       0.00196928      -0.67390126
Al       9.05000000      15.12500000       7.02500000      -0.05993835       0.00099309       0.46908186
Al      11.07500000      13.10000000       7.02500000       0.00555614       0.04468033       0.35884050
Al      11.07500000      15.12500000       5.00000000      -0.00939060      -0.00071436      -0.67131659
Al       9.04047164      13.11124225       9.06123874       0.00223370       0.00342997      -0.01647140
Al       9.00452030      15.12552276      11.07443016       0.00112013       0.00040704       0.02710215
Al      11.14027818      13.17438274      11.08990089      -0.00076454       0.00194652       0.03478144
Al      11.10707680      15.12594799       9.08496851       0.03222013      -0.00033240      -0.00350374
Al       9.05000000      13.10000000      13.10000000      -0.10838710       0.02097167      -0.42099875
Al       9.05000000      15.12500000      15.12500000      -0.04494411      -0.00063114       0.66578322
Al      11.07500000      13.10000000      15.12500000      -0.01886357      -0.00492908       0.68501214
Al      11.07500000      15.12500000      13.10000000       0.36154455       0.00820683      -0.47796997
Al       9.05000000      17.15000000       5.00000000      -0.05056683       0.01246511      -0.67355705
Al       9.05000000      19.17500000       7.02500000      -0.08191550       0.08191550       0.45365189
Al      11.07500000      17.15000000       7.02500000       0.01288915      -0.01288915       0.36777436
Al      11.07500000      19.17500000       5.00000000      -0.01246511       0.05056683      -0.67355705
Al       9.04807449      17.13941473       9.06153149       0.00377139      -0.00148253      -0.01451858
Al       9.07070280      19.15429720      11.07331048      -0.00095233       0.00095233       0.02404337
Al      11.14516440      17.07983560      11.08887856      -0.00149276       0.00149276       0.03418087
Al      11.08558527      19.17692551       9.06153149       0.00148253      -0.00377139      -0.01451858
Al       9.05000000      17.15000000      13.10000000      -0.09486239      -0.00294730      -0.42357710
Al       9.05000000      19.17500000      15.12500000      -0.04731298       0.04731298       0.67074825
Al      11.07500000      17.15000000      15.12500000      -0.01923628       0.01923628       0.68584241
Al      11.07500000      19.17500000      13.10000000       0.00294730       0.09486239      -0.42357710
Al       9.05000000      21.20000000       5.00000000      -0.04963659      -0.31552059      -0.61010152
Al       9.05000000      23.22500000       7.02500000      -0.03438333       0.58252380       0.22145861
Al      11.07500000      21.20000000       7.02500000      -0.00198069      -0.04820912       0.55470290
Al      11.07500000      23.22500000       5.00000000      -0.01160151       0.20765878      -0.15360533
Al       9.05817540      21.23026461       9.06846335      -0.00070826       0.01251586      -0.01212183
Al       9.04094083      23.41198526      11.09830547       0.00037815       0.01000853      -0.03609945
Al      11.06791816      21.26497731      11.05267348       0.00257789       0.01153059       0.01885158
Al      11.06443778      23.43221252       9.03238043       0.00057798       0.01194630       0.04166183
Al       9.05000000      21.20000000      13.10000000      -0.05628179      -0.08376714      -0.56023108
Al       9.05000000      23.22500000      15.12500000      -0.04398467       0.20084042       0.15187321
Al      11.07500000      21.20000000      15.12500000      -0.01055088      -0.31870085       0.60970652
Al      11.07500000      23.22500000      13.10000000      -0.01257102       0.61837958      -0.22679748
Al      13.10000000       5.00000000       5.00000000       0.00082843      -0.21052665      -0.15454331
Al      13.10000000       7.02500000       7.02500000       0.00032359      -0.00307286       0.53195353
Al      15.12500000       5.00000000       7.02500000       0.01123842      -0.62742879       0.23898168
Al      15.12500000       7.02500000       5.00000000      -0.00163325       0.31549313      -0.61265153
Al      13.09765486       4.78952872       9.03144928       0.00061496      -0.01434364       0.03982101
Al      13.09775022       6.95798599      11.05190606       0.00081798      -0.01688779       0.02065655
Al      15.12689458       4.78953661      11.09331098       0.00116456      -0.01349070      -0.03787102
Al      15.12789444       6.95675043       9.07185815       0.00060248      -0.01866974      -0.01699286
Al      13.10000000       5.00000000      13.10000000      -0.01234811      -0.62262344      -0.24245072
Al      13.10000000       7.02500000      15.12500000       0.00109561       0.31650122       0.61207434
Al      15.12500000       5.00000000      15.12500000      -0.00072471      -0.20993120       0.15422923
Al      15.12500000       7.02500000      13.10000000      -0.00157551       0.00152637      -0.53537408
Al      13.10000000       9.05000000       5.00000000       0.00082151      -0.04941549      -0.67140314
Al      13.10000000      11.07500000       7.02500000      -0.00613938       0.06037759       0.40806853
Al      15.12500000       9.05000000       7.02500000      -0.00185231      -0.12395938       0.40466837
Al      15.12500000      11.07500000       5.00000000      -0.00184757      -0.01016720      -0.67110943
Al      13.09957878       9.02206703       9.05074700       0.00003827      -0.00197655      -0.02199239
Al      13.10016698      11.04667029      11.07571866       0.00000168       0.00961654       0.03057396
Al      15.12784182       9.02050621      11.07106292      -0.00137014      -0.00010160       0.02642700
Al      15.11280288      11.08347251       9.06103529      -0.00359127       0.01108482      -0.02089653
Al      13.10000000       9.05000000      13.10000000       0.00075665      -0.18658826      -0.34950763
Al      13.10000000      11.07500000      15.12500000       0.00101714      -0.00501615       0.66259926
Al      15.12500000       9.05000000      15.12500000      -0.00261710      -0.04704926       0.66946806
Al      15.12500000      11.07500000      13.10000000      -0.01535717       0.01029374      -0.35594539
Al      13.10000000      13.10000000       5.00000000       0.00093854       0.00479637      -0.67025631
Al      13.10000000      15.12500000       7.02500000      -0.00868270       0.00868270       0.07238186
Al      15.12500000      13.10000000       7.02500000      -0.04439347       0.04439347       0.34542970
Al      15.12500000      15.12500000       5.00000000      -0.00479637      -0.00093854      -0.67025631
Al      13.09789341      13.14149044       9.08599152      -0.00007640       0.03423066      -0.00769423
Al      15.05030932      13.17469068      11.09055655      -0.00125296       0.00125296       0.03815575
Al      15.08350956      15.12710659       9.08599152      -0.03423066       0.00007640      -0.00769423
Al      13.10000000      13.10000000      13.10000000      -0.01511518       0.39181001      -0.45846902
Al      13.10000000      15.12500000      15.12500000       0.00108589      -0.00108589       0.82454813
Al      15.12500000      13.10000000      15.12500000       0.00490760      -0.00490760       0.68333452
Al      15.12500000      15.12500000      13.10000000      -0.39181001       0.01511518      -0.45846902
Al      13.10000000      17.15000000       5.00000000       0.00071436       0.00939060      -0.67131659
Al      13.10000000      19.17500000       7.02500000      -0.00099309       0.05993835       0.46908186
Al      15.12500000      17.15000000       7.02500000      -0.04468033      -0.00555614       0.35884050
Al      15.12500000      19.17500000       5.00000000      -0.00196928       0.05040668      -0.67390126
Al      13.09905201      17.11792320       9.08496851       0.00033240      -0.03222013      -0.00350374
Al      13.09947724      19.22047970      11.07443016      -0.00040704      -0.00112013       0.02710215
Al      15.05061726      17.08472182      11.08990089      -0.00194652       0.00076454       0.03478144
Al      15.11375775      19.18452836       9.06123874      -0.00342997      -0.00223370      -0.01647140
Al      13.10000000      17.15000000      13.10000000      -0.00820683      -0.36154455      -0.47796997
Al      13.10000000      19.17500000      15.12500000       0.00063114       0.04494411       0.66578322
Al      15.12500000      17.15000000      15.12500000       0.00492908       0.01886357       0.68501214
Al      15.12500000      19.17500000      13.10000000      -0.02097167       0.10838710      -0.42099875
Al      13.10000000      21.20000000       5.00000000       0.00072484      -0.31560586      -0.61211889
Al      13.10000000      23.22500000       7.02500000      -0.01296564       0.63153340       0.23425477
Al      15.12500000      21.20000000       7.02500000      -0.00338038      -0.03629147       0.56805605
Al      15.12500000      23.22500000       5.00000000      -0.00196568       0.20956147      -0.15348803
Al      13.09757155      21.27013507       9.07019667       0.00109340       0.01623994      -0.01529417
Al      13.09753273      23.43606531      11.09255731       0.00094921       0.00953438      -0.03766906
Al      15.12960741      21.27170872      11.05084190      -0.00313236       0.01388874       0.02075829
Al      15.12790500      23.43822855       9.03044997      -0.00056448       0.01126114       0.04096959
Al      13.10000000      21.20000000      13.10000000       0.00025207       0.02509845      -0.51406205
Al      13.10000000      23.22500000      15.12500000       0.00070503       0.20803611       0.15376742
Al      15.12500000      21.20000000      15.12500000      -0.00319619      -0.31858500       0.61073095
Al      15.12500000      23.22500000      13.10000000       0.01021889       0.62586901      -0.24115944
Al      17.15000000       5.00000000       5.00000000       0.01233099      -0.20929463      -0.15465078
Al      17.15000000       7.02500000       7.02500000       0.00176031       0.02754118       0.53661613
Al      19.17500000       5.00000000       7.02500000       0.03547197      -0.59011311       0.22208546
Al      19.17500000       7.02500000       5.00000000       0.05089460       0.31387307      -0.61047846
Al      17.15922228       4.79410259       9.03324411       0.00373555      -0.01390940       0.04088079
Al      17.15470297       6.96374826      11.05355796       0.00291222      -0.01695848       0.01756408
Al      19.18276283       4.81432171      11.09857525       0.00420502      -0.01081619      -0.03696696
Al      19.16892280       6.99098853       9.06809374       0.00685239      -0.01757289      -0.01414709
Al      17.15000000       5.00000000      13.10000000       0.01248638      -0.61707175      -0.22784477
Al      17.15000000       7.02500000      15.12500000       0.01209494       0.31509293       0.61126730
Al      19.17500000       5.00000000      15.12500000       0.04516147      -0.20177587       0.15169494
Al      19.17500000       7.02500000      13.10000000       0.06338933       0.06682998      -0.54997492
Al      17.15000000       9.05000000       5.00000000       0.01159867      -0.05017632      -0.67240654
Al      17.15000000      11.07500000       7.02500000      -0.00144284       0.00144284       0.36391063
Al      19.17500000       9.05000000       7.02500000       0.10172348      -0.10172348       0.43231631
Al      19.17500000      11.07500000       5.00000000       0.05017632      -0.01159867      -0.67240654
Al      17.14423860       9.04042826       9.05478280       0.00262251      -0.00386101      -0.01950096
Al      17.12821880      11.09678120      11.07323406      -0.00186717       0.00186717       0.02964044
Al      19.16873687       9.05626313      11.07194703       0.00646841      -0.00646841       0.02163250
Al      19.18457174      11.08076140       9.05478280       0.00386101      -0.00262251      -0.01950096
Al      17.15000000       9.05000000      13.10000000       0.00684509      -0.11609981      -0.39897532
Al      17.15000000      11.07500000      15.12500000       0.00843125      -0.00843125       0.66879345
Al      19.17500000       9.05000000      15.12500000       0.05067840      -0.05067840       0.67160899
Al      19.17500000      11.07500000      13.10000000       0.11609981      -0.00684509      -0.39897532
Al      17.15000000      13.10000000       5.00000000       0.01016720       0.00184757      -0.67110943
Al      17.15000000      15.12500000       7.02500000      -0.06037759       0.00613938       0.40806853
Al      19.17500000      13.10000000       7.02500000       0.12395938       0.00185231       0.40466837
Al      19.17500000      15.12500000       5.00000000       0.04941549      -0.00082151      -0.67140314
Al      17.14152749      13.11219712       9.06103529      -0.01108482       0.00359127      -0.02089653
Al      17.17832971      15.12483302      11.07571866      -0.00961654      -0.00000168       0.03057396
Al      19.20449379      13.09715818      11.07106292       0.00010160       0.00137014       0.02642700
Al      19.20293297      15.12542122       9.05074700       0.00197655      -0.00003827      -0.02199239
Al      17.15000000      13.10000000      13.10000000      -0.01029374       0.01535717      -0.35594539
Al      17.15000000      15.12500000      15.12500000       0.00501615      -0.00101714       0.66259926
Al      19.17500000      13.10000000      15.12500000       0.04704926       0.00261710       0.66946806
Al      19.17500000      15.12500000      13.10000000       0.18658826      -0.00075665      -0.34950763
Al      17.15000000      17.15000000       5.00000000       0.01032240       0.01223206      -0.67185044
Al      17.15000000      19.17500000       7.02500000      -0.01752462       0.11153760       0.41750809
Al      19.17500000      17.15000000       7.02500000       0.11002516       0.01578689       0.40775378
Al      19.17500000      19.17500000       5.00000000       0.04931379       0.05067482      -0.67221272
Al      17.13729887      17.14173309       9.06221224      -0.01050744      -0.00072860      -0.01927400
Al      17.12609008      19.16813999      11.07298923      -0.00250580       0.00449040       0.02618889
Al      19.19665846      17.15261256      11.07088442      -0.00094480       0.00097851       0.02534142
Al      19.17107965      19.17266878       9.05449709       0.00022508       0.00532961      -0.01734237
Al      17.15000000      17.15000000      13.10000000      -0.01862478       0.01593184      -0.37102022
Al      17.15000000      19.17500000      15.12500000       0.00824475       0.04800022       0.67092923
Al      19.17500000      17.15000000      15.12500000       0.04710562       0.01104708       0.66923934
Al      19.17500000      19.17500000      13.10000000       0.08590568       0.10560347      -0.43970038
Al      17.15000000      21.20000000       5.00000000       0.01062202      -0.31523109      -0.61228619
Al      17.15000000      23.22500000       7.02500000       0.01294896       0.60576050       0.23626298
Al      19.17500000      21.20000000       7.02500000       0.05697981      -0.06936256       0.55094665
Al      19.17500000      23.22500000       5.00000000       0.04402033       0.20192125      -0.15313868
Al      17.14877695      21.25310257       9.07150498      -0.00147728       0.01499934      -0.01318237
Al      17.16002173      23.43120426      11.09089198      -0.00015092       0.01069202      -0.03901070
Al      19.16296397      21.22791613      11.05742571       0.00112701       0.01625983       0.01780578
Al      19.18117097      23.40441872       9.02686828       0.00128766       0.01143819       0.03841105
Al      17.15000000      21.20000000      13.10000000      -0.00788437      -0.04462610      -0.54832143
Al      17.15000000      23.22500000      15.12500000       0.01128773       0.20763057       0.15417906
Al      19.17500000      21.20000000      15.12500000       0.04934012      -0.31491784       0.61021623
Al      19.17500000      23.22500000      13.10000000       0.03269899       0.58221231      -0.22681921
Al      21.20000000       5.00000000       5.00000000      -0.44759071      -0.09499151      -0.06400316
Al      21.20000000       7.02500000       7.02500000      -0.14479243       0.14479243       0.65857756
Al      23.22500000       5.00000000       7.02500000       0.04634522      -0.04634522       0.51761371
Al      23.22500000       7.02500000       5.00000000       0.09499151       0.44759071      -0.06400316
Al      21.17788782       4.87793057       9.04490285       0.00951590      -0.01162222       0.03781425
Al      21.19649288       7.02850712      11.04340060       0.01614478      -0.01614478       0.01372708
Al      23.24712206       4.97787794      11.07609218       0.00850692      -0.00850692      -0.07003610
Al      23.34706943       7.04711218       9.04490285       0.01162222      -0.00951590       0.03781425
Al      21.20000000       5.00000000      13.10000000      -0.24244141      -0.48071349      -0.36274090
Al      21.20000000       7.02500000      15.12500000      -0.31212435       0.31212435       0.55443254
Al      23.22500000       5.00000000      15.12500000      -0.33289695       0.33289695      -0.34496463
Al      23.22500000       7.02500000      13.10000000       0.48071349       0.24244141      -0.36274090
Al      21.20000000       9.05000000       5.00000000      -0.31387307      -0.05089460      -0.61047846
Al      21.20000000      11.07500000       7.02500000      -0.02754118      -0.00176031       0.53661613
Al      23.22500000       9.05000000       7.02500000       0.59011311      -0.03547197       0.22208546
Al      23.22500000      11.07500000       5.00000000       0.20929463      -0.01233099      -0.15465078
Al      21.23401147       9.05607720       9.06809374       0.01757289      -0.00685239      -0.01414709
Al      21.26125174      11.07029703      11.05355796       0.01695848      -0.00291222       0.01756408
Al      23.41067829       9.04223717      11.09857525       0.01081619      -0.00420502      -0.03696696
Al      23.43089741      11.06577772       9.03324411       0.01390940      -0.00373555       0.04088079
Al      21.20000000       9.05000000      13.10000000      -0.06682998      -0.06338933      -0.54997492
Al      21.20000000      11.07500000      15.12500000      -0.31509293      -0.01209494       0.61126730
Al      23.22500000       9.05000000      15.12500000       0.20177587      -0.04516147       0.15169494
Al      23.22500000      11.07500000      13.10000000       0.61707175      -0.01248638      -0.22784477
Al      21.20000000      13.10000000       5.00000000      -0.31549313       0.00163325      -0.61265153
Al      21.20000000      15.12500000       7.02500000       0.00307286      -0.00032359       0.53195353
Al      23.22500000      13.10000000       7.02500000       0.62742879      -0.01123842       0.23898168
Al      23.22500000      15.12500000       5.00000000       0.21052665      -0.00082843      -0.15454331
Al      21.26824957      13.09710556       9.07185815       0.01866974      -0.00060248      -0.01699286
Al      21.26701401      15.12724978      11.05190606       0.01688779      -0.00081798       0.02065655
Al      23.43546339      13.09810542      11.09331098       0.01349070      -0.00116456      -0.03787102
Al      23.43547128      15.12734514       9.03144928       0.01434364      -0.00061496       0.03982101
Al      21.20000000      13.10000000      13.10000000      -0.00152637       0.00157551      -0.53537408
Al      21.20000000      15.12500000      15.12500000      -0.31650122      -0.00109561       0.61207434
Al      23.22500000      13.10000000      15.12500000       0.20993120       0.00072471       0.15422923
Al      23.22500000      15.12500000      13.10000000       0.62262344       0.01234811      -0.24245072
Al      21.20000000      17.15000000       5.00000000      -0.31555035       0.01181675      -0.61168192
Al      21.20000000      19.17500000       7.02500000      -0.06694878       0.06569801       0.54918303
Al      23.22500000      17.15000000       7.02500000       0.61970283       0.01267586       0.22506759
Al      23.22500000      19.17500000       5.00000000       0.20269165       0.04485477      -0.15243127
Al      21.26145610      17.15523901       9.07018801       0.01646117       0.00106252      -0.01517019
Al      21.23874166      19.17265830      11.05667604       0.01466595       0.00393154       0.01780821
Al      23.42965393      17.15925980      11.09135951       0.01379489       0.00155743      -0.03836283
Al      23.41165154      19.18304444       9.02590739       0.01314438       0.00279875       0.03809008
Al      21.20000000      17.15000000      13.10000000      -0.01405400       0.00243991      -0.52390135