299
Lattice="28.224999999999998 0.0 0.0 0.0 28.224999999999998 0.0 0.0 0.0 20.125" Properties=species:S:1:pos:R:3:forces:R:3 energy=-16469.309222191434 pbc="T T T"
Al       5.00000000       5.00000000       5.00000000       0.33262440       0.33246021       0.34193824
Al       5.00000000       7.02500000       7.02500000      -0.48392749       0.24898582       0.37013963
Al       7.02500000       5.00000000       7.02500000       0.24595814      -0.48446805       0.36497987
Al       7.02500000       7.02500000       5.00000000       0.31722349       0.31762150      -0.55994554
Al       4.97775209       4.97744302       9.04862641      -0.01002256      -0.00881111       0.05528458
Al       4.88348074       7.04801701      11.07907661      -0.00995249      -0.00161349      -0.02282454
Al       7.04647028       4.87434747      11.07970628      -0.00453151      -0.00931964      -0.02326068
Al       7.02854623       7.02681326       9.08217678      -0.00928327      -0.00537205      -0.01620170
Al       5.00000000       5.00000000      13.10000000      -0.04690113      -0.04312970      -0.52081741
Al       5.00000000       7.02500000      15.12500000      -0.09079124       0.45112628       0.06961477
Al       7.02500000       5.00000000      15.12500000       0.45081001      -0.09152007       0.06855354
Al       7.02500000       7.02500000      13.10000000       0.15162987       0.15305419      -0.66075505
Al       5.00000000       9.05000000       5.00000000      -0.19698430      -0.04274602      -0.15636671
Al       5.00000000      11.07500000       7.02500000      -0.60555048      -0.01210657       0.24429175
Al       7.02500000       9.05000000       7.02500000       0.07634852      -0.05385531       0.55477929
Al       7.02500000      11.07500000       5.00000000       0.31819400      -0.01241523      -0.61428154
Al       4.82143088       9.04379959       9.02746990      -0.00565711       0.00319143       0.02537592
Al       4.79440117      11.06505982      11.09073265      -0.00441285       0.00197925      -0.02916972
Al       6.99741235       9.06183799      11.05738407      -0.00870070       0.00483069       0.01773035
Al       6.97193874      11.07634404       9.07192265      -0.00545880       0.00340392      -0.01484999
Al       5.00000000       9.05000000      13.10000000      -0.58282033      -0.03140066      -0.23415001
Al       5.00000000      11.07500000      15.12500000      -0.20395564      -0.01110229       0.15713364
Al       7.02500000       9.05000000      15.12500000       0.31971647      -0.04842367       0.61342687
Al       7.02500000      11.07500000      13.10000000       0.04891225       0.00755751      -0.55298216
Al       5.00000000      13.10000000       5.00000000      -0.20696516       0.00164408      -0.15594370
Al       5.00000000      15.12500000       7.02500000      -0.63291905       0.01270388       0.24185015
Al       7.02500000      13.10000000       7.02500000       0.03998798       0.00236071       0.57620921
Al       7.02500000      15.12500000       5.00000000       0.31700659       0.00003712      -0.61446283
Al       4.78689081      13.09716887       9.03089551      -0.00384706       0.00017118       0.02956961
Al       4.78904544      15.12738648      11.09251408      -0.00334458      -0.00112735      -0.02793717
Al       6.95308120      13.09557837      11.05109884      -0.00518130       0.00150047       0.01646686
Al       6.95449319      15.12726439       9.07053683      -0.00610247      -0.00118997      -0.01559445
Al       5.00000000      13.10000000      13.10000000      -0.62800227      -0.01015922      -0.24743745
Al       5.00000000      15.12500000      15.12500000      -0.20564498      -0.00046165       0.15636592
Al       7.02500000      13.10000000      15.12500000       0.31950777       0.00196535       0.61329139
Al       7.02500000      15.12500000      13.10000000      -0.02411419       0.00015547      -0.51912913
Al       5.00000000      17.15000000       5.00000000      -0.20414343       0.01191919      -0.15627807
Al       5.00000000      19.17500000       7.02500000      -0.58255045       0.03289217       0.22862609
Al       7.02500000      17.15000000       7.02500000       0.05241013       0.00206880       0.56145686
Al       7.02500000      19.17500000       5.00000000       0.31941033       0.04951237      -0.61290202
Al       4.79306437      17.16043310       9.03287655      -0.00497287      -0.00239790       0.02948683
Al       4.81358410      19.18391152      11.09803729      -0.00528260      -0.00379255      -0.02434389
Al       6.95994911      17.15689660      11.05271624      -0.00379866      -0.00476564       0.01757072
Al       6.99468785      19.16689557       9.06904152      -0.00481448      -0.00484869      -0.01732654
Al       5.00000000      17.15000000      13.10000000      -0.61964198       0.01150038      -0.23261360
Al       5.00000000      19.17500000      15.12500000      -0.19637770       0.04284595       0.15530634
Al       7.02500000      17.15000000      15.12500000       0.32036959       0.01232075       0.61235774
Al       7.02500000      19.17500000      13.10000000       0.08822840       0.05364759      -0.56155642
Al       5.00000000      21.20000000       5.00000000      -0.09024027      -0.45124299      -0.06870256
Al       5.00000000      23.22500000       7.02500000      -0.04349282       0.04349282       0.52302849
Al       7.02500000      21.20000000       7.02500000       0.15796626      -0.15796626       0.65692220
Al       7.02500000      23.22500000       5.00000000       0.45124299       0.09024027      -0.06870256
Al       4.88199783      21.17659996       9.04537318      -0.00888946       0.00212028       0.02278517
Al       4.98129782      23.24370218      11.07496670      -0.00945176       0.00945176      -0.05383931
Al       7.03400244      21.19099756      11.04409071      -0.00629687       0.00629687       0.01802591
Al       7.04840004      23.34300217       9.04537318      -0.00212028       0.00888946       0.02278517
Al       5.00000000      21.20000000      13.10000000      -0.47659910      -0.24803346      -0.36694942
Al       5.00000000      23.22500000      15.12500000       0.33375158      -0.33375158      -0.34119802
Al       7.02500000      21.20000000      15.12500000       0.31822479      -0.31822479       0.56001152
Al       7.02500000      23.22500000      13.10000000       0.24803346       0.47659910      -0.36694942
Al       9.05000000       5.00000000       5.00000000      -0.04330772      -0.19775426      -0.15561582
Al       9.05000000       7.02500000       7.02500000      -0.06086870       0.07288035       0.55219864
Al      11.07500000       5.00000000       7.02500000      -0.01050977      -0.61920731       0.23135709
Al      11.07500000       7.02500000       5.00000000      -0.01287016       0.31861810      -0.61351236
Al       9.04242169       4.81363136       9.02637614       0.00031471      -0.00697849       0.02472356
Al       9.05270124       6.98608846      11.05661615      -0.00018890      -0.00552090       0.01800034
Al      11.06610294       4.79564000      11.09129348      -0.00028383      -0.00777774      -0.02839317
Al      11.07024887       6.96330619       9.07066496       0.00023734      -0.00628087      -0.01833605
Al       9.05000000       5.00000000      13.10000000      -0.03210986      -0.59561708      -0.22137330
Al       9.05000000       7.02500000      15.12500000      -0.04914520       0.32008062       0.61280326
Al      11.07500000       5.00000000      15.12500000      -0.01206750      -0.20444546       0.15753684
Al      11.07500000       7.02500000      13.10000000      -0.00144442       0.01837534      -0.52730837
Al       9.05000000       9.05000000       5.00000000      -0.05149693      -0.05070420      -0.67295793
Al       9.05000000      11.07500000       7.02500000      -0.11120887       0.01530109       0.42863506
Al      11.07500000       9.05000000       7.02500000      -0.01613920      -0.11088756       0.41817627
Al      11.07500000      11.07500000       5.00000000      -0.01625629      -0.01528329      -0.67318196
Al       9.05258512       9.05369407       9.05503280      -0.00100130       0.00596304      -0.01998914
Al       9.05698960      11.09881561      11.07320247      -0.00355023       0.00281419       0.02002517
Al      11.07279627       9.02816395      11.07110491      -0.00167385       0.00412517       0.01982613
Al      11.08364340      11.08770052       9.06276868      -0.00157629       0.00897822      -0.01800903
Al       9.05000000       9.05000000      13.10000000      -0.10337008      -0.08494522      -0.44371065
Al       9.05000000      11.07500000      15.12500000      -0.05157842      -0.01247808       0.67240469
Al      11.07500000       9.05000000      15.12500000      -0.01383079      -0.05064294       0.67053897
Al      11.07500000      11.07500000      13.10000000      -0.01987067       0.01197785      -0.38068262
Al       9.05000000      13.10000000       5.00000000      -0.05432128       0.00006429      -0.67525063
Al       9.05000000      15.12500000       7.02500000      -0.06088610       0.00174427       0.48186903
Al      11.07500000      13.10000000       7.02500000       0.00229486       0.04219993       0.37417447
Al      11.07500000      15.12500000       5.00000000      -0.01417247       0.00091836      -0.67347113
Al       9.04059675      13.11134586       9.06177460       0.00297074       0.00158834      -0.01591068
Al       9.00463104      15.12532923      11.07466480       0.00049945       0.00139703       0.01904381
Al      11.14051433      13.17422379      11.09043889      -0.00603396      -0.00123067       0.02419754
Al      11.10756104      15.12569764       9.08565820       0.02440298       0.00218728      -0.00386654
Al       9.05000000      13.10000000      13.10000000      -0.11290822       0.01780465      -0.42951486
Al       9.05000000      15.12500000      15.12500000      -0.05187938       0.00052902       0.66875364
Al      11.07500000      13.10000000      15.12500000      -0.02558509      -0.00930318       0.68921295
Al      11.07500000      15.12500000      13.10000000       0.35751356       0.00959734      -0.49157526
Al       9.05000000      17.15000000       5.00000000      -0.05364837       0.01553960      -0.67472560
Al       9.05000000      19.17500000       7.02500000      -0.08060596       0.08060596       0.46046448
Al      11.07500000      17.15000000       7.02500000       0.01032812      -0.01032812       0.38232938
Al      11.07500000      19.17500000       5.00000000      -0.01553960       0.05364837      -0.67472560
Al       9.04802526      17.13934828       9.06207546       0.00719057      -0.00391244      -0.01556671
Al       9.07056378      19.15443622      11.07328452       0.00305559      -0.00305559       0.02305895
Al      11.14512561      17.07987439      11.08928511      -0.00455300       0.00455300       0.02486907
Al      11.08565172      19.17697474       9.06207546       0.00391244      -0.00719057      -0.01556671
Al       9.05000000      17.15000000      13.10000000      -0.09842226      -0.00011336      -0.43105362
Al       9.05000000      19.17500000      15.12500000      -0.04974147       0.04974147       0.67255520
Al      11.07500000      17.15000000      15.12500000      -0.02533507       0.02533507       0.68941868
Al      11.07500000      19.17500000      13.10000000       0.00011336       0.09842226      -0.43105362
Al       9.05000000      21.20000000       5.00000000      -0.04951237      -0.31941033      -0.61290202
Al       9.05000000      23.22500000       7.02500000      -0.03289217       0.58255045       0.22862609
Al      11.07500000      21.20000000       7.02500000      -0.00206880      -0.05241013       0.56145686
Al      11.07500000      23.22500000       5.00000000      -0.01191919       0.20414343      -0.15627807
Al       9.05810443      21.23031215       9.06904152       0.00484869       0.00481448      -0.01732654
Al       9.04108848      23.41141590      11.09803729       0.00379255       0.00528260      -0.02434389
Al      11.06810340      21.26505089      11.05271624       0.00476564       0.00379866       0.01757072
Al      11.06456690      23.43193563       9.03287655       0.00239790       0.00497287       0.02948683
Al       9.05000000      21.20000000      13.10000000      -0.05364759      -0.08822840      -0.56155642
Al       9.05000000      23.22500000      15.12500000      -0.04284595       0.19637770       0.15530634
Al      11.07500000      21.20000000      15.12500000      -0.01232075      -0.32036959       0.61235774
Al      11.07500000      23.22500000      13.10000000      -0.01150038       0.61964198      -0.23261360
Al      13.10000000       5.00000000       5.00000000       0.00070647      -0.20721069      -0.15674183
Al      13.10000000       7.02500000       7.02500000       0.00040459       0.00084734       0.53884434
Al      15.12500000       5.00000000       7.02500000       0.01048212      -0.62727587       0.24624936
Al      15.12500000       7.02500000       5.00000000      -0.00092905       0.31780724      -0.61417979
Al      13.09774421       4.78955815       9.03187365       0.00106672      -0.00694370       0.02741628
Al      13.09804027       6.95768269      11.05220093      -0.00009621      -0.00752760       0.01708770
Al      15.12662240       4.78974258      11.09330867       0.00186644      -0.00738458      -0.02864214
Al      15.12750499       6.95644940       9.07228125       0.00285310      -0.00838971      -0.01925582
Al      13.10000000       5.00000000      13.10000000      -0.01216618      -0.62428698      -0.24758785
Al      13.10000000       7.02500000      15.12500000       0.00029801       0.31897023       0.61451146
Al      15.12500000       5.00000000      15.12500000      -0.00104368      -0.20701807       0.15712746
Al      15.12500000       7.02500000      13.10000000      -0.00170555       0.00528251      -0.53978686
Al      13.10000000       9.05000000       5.00000000      -0.00022932      -0.05380093      -0.67229971
Al      13.10000000      11.07500000       7.02500000      -0.00697443       0.05581593       0.42322825
Al      15.12500000       9.05000000       7.02500000      -0.00008655      -0.12577274       0.41641293
Al      15.12500000      11.07500000       5.00000000       0.00059921      -0.01586834      -0.67290051
Al      13.09988548       9.02194658       9.05133114      -0.00157518      -0.00007594      -0.02258175
Al      13.10055876      11.04671249      11.07616666      -0.00384296       0.00548978       0.02013546
Al      15.12761959       9.02053808      11.07134848       0.00142217       0.00010061       0.01979277
Al      15.11270354      11.08360528       9.06165244      -0.00054608       0.00732996      -0.02061135
Al      13.10000000       9.05000000      13.10000000       0.00008056      -0.19047890      -0.35626758
Al      13.10000000      11.07500000      15.12500000      -0.00058047      -0.01342100       0.66625406
Al      15.12500000       9.05000000      15.12500000      -0.00113121      -0.05133654       0.67094308
Al      15.12500000      11.07500000      13.10000000      -0.01150396       0.00273864      -0.36522300
Al      13.10000000      13.10000000       5.00000000      -0.00087244       0.00212888      -0.67331556
Al      13.10000000      15.12500000       7.02500000      -0.01006514       0.01006514       0.08701076
Al      15.12500000      13.10000000       7.02500000      -0.04138617       0.04138617       0.36104568
Al      15.12500000      15.12500000       5.00000000      -0.00212888       0.00087244      -0.67331556
Al      13.09825811      13.14167519       9.08673315      -0.00380845       0.02755024      -0.00782914
Al      15.05046194      13.17453806      11.09123265       0.00182398      -0.00182398       0.02691745
Al      15.08332481      15.12674189       9.08673315      -0.02755024       0.00380845      -0.00782914
Al      13.10000000      13.10000000      13.10000000      -0.01659706       0.38958465      -0.47229902
Al      13.10000000      15.12500000      15.12500000      -0.00072073       0.00072073       0.82998151
Al      15.12500000      13.10000000      15.12500000       0.00948472      -0.00948472       0.68848322
Al      15.12500000      15.12500000      13.10000000      -0.38958465       0.01659706      -0.47229902
Al      13.10000000      17.15000000       5.00000000      -0.00091836       0.01417247      -0.67347113
Al      13.10000000      19.17500000       7.02500000      -0.00174427       0.06088610       0.48186903
Al      15.12500000      17.15000000       7.02500000      -0.04219993      -0.00229486       0.37417447
Al      15.12500000      19.17500000       5.00000000      -0.00006429       0.05432128      -0.67525063
Al      13.09930236      17.11743896       9.08565820      -0.00218728      -0.02440298      -0.00386654
Al      13.09967077      19.22036896      11.07466480      -0.00139703      -0.00049945       0.01904381
Al      15.05077621      17.08448567      11.09043889       0.00123067       0.00603396       0.02419754
Al      15.11365414      19.18440325       9.06177460      -0.00158834      -0.00297074      -0.01591068
Al      13.10000000      17.15000000      13.10000000      -0.00959734      -0.35751356      -0.49157526
Al      13.10000000      19.17500000      15.12500000      -0.00052902       0.05187938       0.66875364
Al      15.12500000      17.15000000      15.12500000       0.00930318       0.02558509       0.68921295
Al      15.12500000      19.17500000      13.10000000      -0.01780465       0.11290822      -0.42951486
Al      13.10000000      21.20000000       5.00000000      -0.00003712      -0.31700659      -0.61446283
Al      13.10000000      23.22500000       7.02500000      -0.01270388       0.63291905       0.24185015
Al      15.12500000      21.20000000       7.02500000      -0.00236071      -0.03998798       0.57620921
Al      15.12500000      23.22500000       5.00000000      -0.00164408       0.20696516      -0.15594370
Al      13.09773561      21.27050681       9.07053683       0.00118997       0.00610247      -0.01559445
Al      13.09761352      23.43595456      11.09251408       0.00112735       0.00334458      -0.02793717
Al      15.12942163      21.27191880      11.05109884      -0.00150047       0.00518130       0.01646686
Al      15.12783113      23.43810919       9.03089551      -0.00017118       0.00384706       0.02956961
Al      13.10000000      21.20000000      13.10000000      -0.00015547       0.02411419      -0.51912913
Al      13.10000000      23.22500000      15.12500000       0.00046165       0.20564498       0.15636592
Al      15.12500000      21.20000000      15.12500000      -0.00196535      -0.31950777       0.61329139
Al      15.12500000      23.22500000      13.10000000       0.01015922       0.62800227      -0.24743745
Al      17.15000000       5.00000000       5.00000000       0.01177258      -0.20500386      -0.15715892
Al      17.15000000       7.02500000       7.02500000       0.00048607       0.03376362       0.54389862
Al      19.17500000       5.00000000       7.02500000       0.03240432      -0.58931404       0.23031077
Al      19.17500000       7.02500000       5.00000000       0.04936691       0.31916735      -0.61287803
Al      17.15880378       4.79454388       9.03378153       0.00250834      -0.00596830       0.02817547
Al      17.15417228       6.96383560      11.05370829       0.00222841      -0.00777049       0.01478005
Al      19.18236298       4.81509270      11.09833891       0.00089560      -0.00594725      -0.02659860
Al      19.16871907       6.99109394       9.06870210       0.00139965      -0.00784370      -0.01924269
Al      17.15000000       5.00000000      13.10000000       0.00993024      -0.61787444      -0.23410521
Al      17.15000000       7.02500000      15.12500000       0.01247972       0.31899859       0.61393052
Al      19.17500000       5.00000000      15.12500000       0.04324670      -0.19764540       0.15585213
Al      19.17500000       7.02500000      13.10000000       0.05831432       0.07354464      -0.55224499
Al      17.15000000       9.05000000       5.00000000       0.01437918      -0.05272534      -0.67243444
Al      17.15000000      11.07500000       7.02500000       0.00224286      -0.00224286       0.37829633
Al      19.17500000       9.05000000       7.02500000       0.09865512      -0.09865512       0.44037694
Al      19.17500000      11.07500000       5.00000000       0.05272534      -0.01437918      -0.67243444
Al      17.14398042       9.04042405       9.05540949       0.00263988      -0.00038568      -0.02123335
Al      17.12811114      11.09688886      11.07359383       0.00155815      -0.00155815       0.02096704
Al      19.16860892       9.05639108      11.07206213       0.00173507      -0.00173507       0.01827824
Al      19.18457595      11.08101958       9.05540949       0.00038568      -0.00263988      -0.02123335
Al      17.15000000       9.05000000      13.10000000       0.00770629      -0.11610616      -0.40605346
Al      17.15000000      11.07500000      15.12500000       0.01351798      -0.01351798       0.67052316
Al      19.17500000       9.05000000      15.12500000       0.05055089      -0.05055089       0.67306329
Al      19.17500000      11.07500000      13.10000000       0.11610616      -0.00770629      -0.40605346
Al      17.15000000      13.10000000       5.00000000       0.01586834      -0.00059921      -0.67290051
Al      17.15000000      15.12500000       7.02500000      -0.05581593       0.00697443       0.42322825
Al      19.17500000      13.10000000       7.02500000       0.12577274       0.00008655       0.41641293
Al      19.17500000      15.12500000       5.00000000       0.05380093       0.00022932      -0.67229971
Al      17.14139472      13.11229646       9.06165244      -0.00732996       0.00054608      -0.02061135
Al      17.17828751      15.12444124      11.07616666      -0.00548978       0.00384296       0.02013546
Al      19.20446192      13.09738041      11.07134848      -0.00010061      -0.00142217       0.01979277
Al      19.20305342      15.12511452       9.05133114       0.00007594       0.00157518      -0.02258175
Al      17.15000000      13.10000000      13.10000000      -0.00273864       0.01150396      -0.36522300
Al      17.15000000      15.12500000      15.12500000       0.01342100       0.00058047       0.66625406
Al      19.17500000      13.10000000      15.12500000       0.05133654       0.00113121       0.67094308
Al      19.17500000      15.12500000      13.10000000       0.19047890      -0.00008056      -0.35626758
Al      17.15000000      17.15000000       5.00000000       0.01528329       0.01625629      -0.67318196
Al      17.15000000      19.17500000       7.02500000      -0.01530109       0.11120887       0.42863506
Al      19.17500000      17.15000000       7.02500000       0.11088756       0.01613920       0.41817627
Al      19.17500000      19.17500000       5.00000000       0.05070420       0.05149693      -0.67295793
Al      17.13729948      17.14135660       9.06276868      -0.00897822       0.00157629      -0.01800903
Al      17.12618439      19.16801040      11.07320247      -0.00281419       0.00355023       0.02002517
Al      19.19683605      17.15220373      11.07110491      -0.00412517       0.00167385       0.01982613
Al      19.17130593      19.17241488       9.05503280      -0.00596304       0.00100130      -0.01998914
Al      17.15000000      17.15000000      13.10000000      -0.01197785       0.01987067      -0.38068262
Al      17.15000000      19.17500000      15.12500000       0.01247808       0.05157842       0.67240469
Al      19.17500000      17.15000000      15.12500000       0.05064294       0.01383079       0.67053897
Al      19.17500000      19.17500000      13.10000000       0.08494522       0.10337008      -0.44371065
Al      17.15000000      21.20000000       5.00000000       0.01241523      -0.31819400      -0.61428154
Al      17.15000000      23.22500000       7.02500000       0.01210657       0.60555048       0.24429175
Al      19.17500000      21.20000000       7.02500000       0.05385531      -0.07634852       0.55477929
Al      19.17500000      23.22500000       5.00000000       0.04274602       0.19698430      -0.15636671
Al      17.14865596      21.25306126       9.07192265      -0.00340392       0.00545880      -0.01484999
Al      17.15994018      23.43059883      11.09073265      -0.00197925       0.00441285      -0.02916972
Al      19.16316201      21.22758765      11.05738407      -0.00483069       0.00870070       0.01773035
Al      19.18120041      23.40356912       9.02746990      -0.00319143       0.00565711       0.02537592
Al      17.15000000      21.20000000      13.10000000      -0.00755751      -0.04891225      -0.55298216
Al      17.15000000      23.22500000      15.12500000       0.01110229       0.20395564       0.15713364
Al      19.17500000      21.20000000      15.12500000       0.04842367      -0.31971647       0.61342687
Al      19.17500000      23.22500000      13.10000000       0.03140066       0.58282033      -0.23415001
Al      21.20000000       5.00000000       5.00000000      -0.45070173      -0.09155467      -0.06882476
Al      21.20000000       7.02500000       7.02500000      -0.15134227       0.15134227       0.66154664
Al      23.22500000       5.00000000       7.02500000       0.04503542      -0.04503542       0.52075825
Al      23.22500000       7.02500000       5.00000000       0.09155467       0.45070173      -0.06882476
Al      21.17810590       4.87856391       9.04588758       0.00334985      -0.00752365       0.02281139
Al      21.19639921       7.02860079      11.04366315       0.00868274      -0.00868274       0.01356077
Al      23.24725686       4.97774314      11.07684297       0.00857848      -0.00857848      -0.05617666
Al      23.34643609       7.04689410       9.04588758       0.00752365      -0.00334985       0.02281139
Al      21.20000000       5.00000000      13.10000000      -0.24729180      -0.48386788      -0.36619003
Al      21.20000000       7.02500000      15.12500000      -0.31731874       0.31731874       0.56004172
Al      23.22500000       5.00000000      15.12500000      -0.33245690       0.33245690      -0.34214233
Al      23.22500000       7.02500000      13.10000000       0.48386788       0.24729180      -0.36619003
Al      21.20000000       9.05000000       5.00000000      -0.31916735      -0.04936691      -0.61287803
Al      21.20000000      11.07500000       7.02500000      -0.03376362      -0.00048607       0.54389862
Al      23.22500000       9.05000000       7.02500000       0.58931404      -0.03240432       0.23031077
Al      23.22500000      11.07500000       5.00000000       0.20500386      -0.01177258      -0.15715892
Al      21.23390606       9.05628093       9.06870210       0.00784370      -0.00139965      -0.01924269
Al      21.26116440      11.07082772      11.05370829       0.00777049      -0.00222841       0.01478005
Al      23.40990730       9.04263702      11.09833891       0.00594725      -0.00089560      -0.02659860
Al      23.43045612      11.06619622       9.03378153       0.00596830      -0.00250834       0.02817547
Al      21.20000000       9.05000000      13.10000000      -0.07354464      -0.05831432      -0.55224499
Al      21.20000000      11.07500000      15.12500000      -0.31899859      -0.01247972       0.61393052
Al      23.22500000       9.05000000      15.12500000       0.19764540      -0.04324670       0.15585213
Al      23.22500000      11.07500000      13.10000000       0.61787444      -0.00993024      -0.23410521
Al      21.20000000      13.10000000       5.00000000      -0.31780724       0.00092905      -0.61417979
Al      21.20000000      15.12500000       7.02500000      -0.00084734      -0.00040459       0.53884434
Al      23.22500000      13.10000000       7.02500000       0.62727587      -0.01048212       0.24624936
Al      23.22500000      15.12500000       5.00000000       0.20721069      -0.00070647      -0.15674183
Al      21.26855060      13.09749501       9.07228125       0.00838971      -0.00285310      -0.01925582
Al      21.26731731      15.12695973      11.05220093       0.00752760       0.00009621       0.01708770
Al      23.43525742      13.09837760      11.09330867       0.00738458      -0.00186644      -0.02864214
Al      23.43544185      15.12725579       9.03187365       0.00694370      -0.00106672       0.02741628
Al      21.20000000      13.10000000      13.10000000      -0.00528251       0.00170555      -0.53978686
Al      21.20000000      15.12500000      15.12500000      -0.31897023      -0.00029801       0.61451146
Al      23.22500000      13.10000000      15.12500000       0.20701807       0.00104368       0.15712746
Al      23.22500000      15.12500000      13.10000000       0.62428698       0.01216618      -0.24758785
Al      21.20000000      17.15000000       5.00000000      -0.31861810       0.01287016      -0.61351236
Al      21.20000000      19.17500000       7.02500000      -0.07288035       0.06086870       0.55219864
Al      23.22500000      17.15000000       7.02500000       0.61920731       0.01050977       0.23135709
Al      23.22500000      19.17500000       5.00000000       0.19775426       0.04330772      -0.15561582
Al      21.26169381      17.15475113       9.07066496       0.00628087      -0.00023734      -0.01833605
Al      21.23891154      19.17229876      11.05661615       0.00552090       0.00018890       0.01800034
Al      23.42936000      17.15889706      11.09129348       0.00777774       0.00028383      -0.02839317
Al      23.41136864      19.18257831       9.02637614       0.00697849      -0.00031471       0.02472356
Al      21.20000000      17.15000000      13.10000000      -0.01837534       0.00144442      -0.52730837