299
Lattice="28.224999999999998 0.0 0.0 0.0 28.224999999999998 0.0 0.0 0.0 20.125" Properties=species:S:1:pos:R:3:forces:R:3 energy=-16469.307902033444 pbc="T T T"
Al       5.00000000       5.00000000       5.00000000       0.32649225       0.32693376       0.33315707
Al       5.00000000       7.02500000       7.02500000      -0.49761586       0.24878916       0.37775527
Al       7.02500000       5.00000000       7.02500000       0.24437306      -0.49742729       0.37245749
Al       7.02500000       7.02500000       5.00000000       0.32487828       0.32611163      -0.58538395
Al       4.97745631       4.97721354       9.04796305      -0.01119601      -0.00941874       0.03925199
Al       4.88301462       7.04821046      11.07967571      -0.00331758       0.00256715      -0.01539100
Al       7.04654054       4.87391914      11.08033499      -0.00108153      -0.00225132      -0.01635459
Al       7.02873659       7.02716363       9.08068727      -0.00523199      -0.00100465       0.00908987
Al       5.00000000       5.00000000      13.10000000      -0.05000413      -0.04505867      -0.52462510
Al       5.00000000       7.02500000      15.12500000      -0.09202827       0.45635895       0.08420019
Al       7.02500000       5.00000000      15.12500000       0.45474756      -0.09233907       0.08357176
Al       7.02500000       7.02500000      13.10000000       0.15109568       0.15507141      -0.66552493
Al       5.00000000       9.05000000       5.00000000      -0.19680482      -0.03768850      -0.17301865
Al       5.00000000      11.07500000       7.02500000      -0.61594042      -0.00867757       0.24952385
Al       7.02500000       9.05000000       7.02500000       0.07639966      -0.04738019       0.55455763
Al       7.02500000      11.07500000       5.00000000       0.32938464      -0.00888944      -0.64102804
Al       4.82116347       9.04398717       9.02649388      -0.00064400       0.00673544       0.02339194
Al       4.79414308      11.06496124      11.09129199       0.00425790       0.00650147      -0.01894106
Al       6.99753491       9.06207231      11.05869152      -0.00109141       0.01044391      -0.00302286
Al       6.97231490      11.07630230       9.07041079      -0.00061259       0.00738419       0.01206576
Al       5.00000000       9.05000000      13.10000000      -0.59200056      -0.02536008      -0.23798993
Al       5.00000000      11.07500000      15.12500000      -0.19872206      -0.00705369       0.17200537
Al       7.02500000       9.05000000      15.12500000       0.33161619      -0.03906514       0.63781119
Al       7.02500000      11.07500000      13.10000000       0.05241396       0.01345608      -0.55175510
Al       5.00000000      13.10000000       5.00000000      -0.20463519       0.00179823      -0.17278166
Al       5.00000000      15.12500000       7.02500000      -0.64202128       0.00896734       0.25019339
Al       7.02500000      13.10000000       7.02500000       0.04178320       0.00330131       0.57870884
Al       7.02500000      15.12500000       5.00000000       0.32869871      -0.00249040      -0.64170885
Al       4.78663642      13.09689955       9.03025478       0.00462997       0.00279209       0.02556576
Al       4.78868629      15.12739327      11.09290840       0.00746153      -0.00442404      -0.01683533
Al       6.95381650      13.09534440      11.05175159      -0.00325351       0.00411248       0.00425207
Al       6.95527757      15.12714004       9.06942897      -0.00448943      -0.00366202       0.00850502
Al       5.00000000      13.10000000      13.10000000      -0.63253685      -0.00895580      -0.25390395
Al       5.00000000      15.12500000      15.12500000      -0.19998276      -0.00238825       0.17112011
Al       7.02500000      13.10000000      15.12500000       0.33155533       0.00268657       0.63717661
Al       7.02500000      15.12500000      13.10000000      -0.02122004      -0.00382756      -0.51960602
Al       5.00000000      17.15000000       5.00000000      -0.20321931       0.00767709      -0.17395370
Al       5.00000000      19.17500000       7.02500000      -0.59661570       0.02772574       0.23368840
Al       7.02500000      17.15000000       7.02500000       0.05463323      -0.00537773       0.56250078
Al       7.02500000      19.17500000       5.00000000       0.32989776       0.04140135      -0.64091709
Al       4.79272991      17.16033693       9.03199094       0.00251958      -0.00681269       0.02766029
Al       4.81307915      19.18367516      11.09892183       0.00298725      -0.00788945      -0.01787875
Al       6.96028915      17.15663703      11.05395894       0.00301894      -0.00792970      -0.00122422
Al       6.99489222      19.16657473       9.06720497       0.00175987      -0.00920828       0.01678388
Al       5.00000000      17.15000000      13.10000000      -0.62678712       0.00533955      -0.23578576
Al       5.00000000      19.17500000      15.12500000      -0.19360713       0.03634895       0.17087916
Al       7.02500000      17.15000000      15.12500000       0.33265157       0.00733586       0.63673934
Al       7.02500000      19.17500000      13.10000000       0.09117678       0.04522519      -0.55973903
Al       5.00000000      21.20000000       5.00000000      -0.09490461      -0.45416520      -0.08526539
Al       5.00000000      23.22500000       7.02500000      -0.04899027       0.04899027       0.52685574
Al       7.02500000      21.20000000       7.02500000       0.15619574      -0.15619574       0.66350050
Al       7.02500000      23.22500000       5.00000000       0.45416520       0.09490461      -0.08526539
Al       4.88141386      21.17652071       9.04443508      -0.00249792      -0.00138251       0.02254595
Al       4.98086532      23.24413468      11.07554931      -0.00802900       0.00802900      -0.03487597
Al       7.03424022      21.19075978      11.04551263      -0.00065665       0.00065665      -0.00305475
Al       7.04847929      23.34358614       9.04443508       0.00138251       0.00249792       0.02254595
Al       5.00000000      21.20000000      13.10000000      -0.48786584      -0.24870557      -0.37283247
Al       5.00000000      23.22500000      15.12500000       0.32928664      -0.32928664      -0.33275851
Al       7.02500000      21.20000000      15.12500000       0.32817663      -0.32817663       0.58385065
Al       7.02500000      23.22500000      13.10000000       0.24870557       0.48786584      -0.37283247
Al       9.05000000       5.00000000       5.00000000      -0.03839402      -0.19747663      -0.17290318
Al       9.05000000       7.02500000       7.02500000      -0.05578806       0.07427285       0.55160621
Al      11.07500000       5.00000000       7.02500000      -0.00633824      -0.63004097       0.23543661
Al      11.07500000       7.02500000       5.00000000      -0.00867506       0.33022708      -0.64096145
Al       9.04255233       4.81333629       9.02532580       0.00297996      -0.00128265       0.02312379
Al       9.05274538       6.98636450      11.05797905       0.00486411       0.00248627      -0.00432863
Al      11.06597098       4.79527131      11.09187663       0.00418627       0.00155550      -0.02004176
Al      11.07014926       6.96373216       9.06897351       0.00431133      -0.00014045       0.01043216
Al       9.05000000       5.00000000      13.10000000      -0.02782650      -0.60512208      -0.22514135
Al       9.05000000       7.02500000      15.12500000      -0.04150552       0.33341278       0.63809230
Al      11.07500000       5.00000000      15.12500000      -0.00842083      -0.20004067       0.17393910
Al      11.07500000       7.02500000      13.10000000       0.00352350       0.02320216      -0.52640345
Al       9.05000000       9.05000000       5.00000000      -0.04380500      -0.04246707      -0.70124547
Al       9.05000000      11.07500000       7.02500000      -0.10556115       0.02023494       0.42234526
Al      11.07500000       9.05000000       7.02500000      -0.01179622      -0.10396999       0.41139765
Al      11.07500000      11.07500000       5.00000000      -0.01291953      -0.01204712      -0.70309936
Al       9.05267968       9.05395680       9.05294737       0.00439713       0.01138602       0.01728525
Al       9.05712142      11.09911398      11.07440021       0.00335621       0.00425218      -0.00164439
Al      11.07288511       9.02846325      11.07234263      -0.00034265       0.01065100      -0.00380017
Al      11.08349006      11.08767938       9.06106875       0.00354942       0.01248125       0.01433293
Al       9.05000000       9.05000000      13.10000000      -0.09680386      -0.07533825      -0.43762655
Al       9.05000000      11.07500000      15.12500000      -0.04462904      -0.00855138       0.69810700
Al      11.07500000       9.05000000      15.12500000      -0.01071313      -0.04201682       0.69704942
Al      11.07500000      11.07500000      13.10000000      -0.01688243       0.01836138      -0.37602032
Al       9.05000000      13.10000000       5.00000000      -0.04676012       0.00056484      -0.70427990
Al       9.05000000      15.12500000       7.02500000      -0.05505835      -0.00146567       0.47732039
Al      11.07500000      13.10000000       7.02500000       0.00441115       0.04215372       0.36940046
Al      11.07500000      15.12500000       5.00000000      -0.01126763      -0.00030042      -0.70453496
Al       9.04080962      13.11121454       9.06015782       0.00742265       0.00307769       0.01393656
Al       9.00481820      15.12509815      11.07576519       0.00764817       0.00093940       0.00101072
Al      11.14019889      13.17421107      11.09114675      -0.00009350      -0.00202021       0.01007131
Al      11.10742904      15.12559574       9.08433299       0.02316099       0.00129761       0.02104189
Al       9.05000000      13.10000000      13.10000000      -0.10591649       0.01963132      -0.42473706
Al       9.05000000      15.12500000      15.12500000      -0.04460154      -0.00109234       0.69452531
Al      11.07500000      13.10000000      15.12500000      -0.02280528      -0.00753751       0.71515233
Al      11.07500000      15.12500000      13.10000000       0.36314585       0.00818244      -0.48836065
Al       9.05000000      17.15000000       5.00000000      -0.04477862       0.01034906      -0.70377314
Al       9.05000000      19.17500000       7.02500000      -0.07175944       0.07175944       0.45668741
Al      11.07500000      17.15000000       7.02500000       0.01422210      -0.01422210       0.37660223
Al      11.07500000      19.17500000       5.00000000      -0.01034906       0.04477862      -0.70377314
Al       9.04827685      17.13886890       9.06029807       0.01247477      -0.00373128       0.01919689
Al       9.07086037      19.15413963      11.07502919       0.01003831      -0.01003831      -0.00587800
Al      11.14529006      17.07970994      11.09017524      -0.00163152       0.00163152       0.00928463
Al      11.08613110      19.17672315       9.06029807       0.00373128      -0.01247477       0.01919689
Al       9.05000000      17.15000000      13.10000000      -0.08906977      -0.00721559      -0.42567320
Al       9.05000000      19.17500000      15.12500000      -0.04116756       0.04116756       0.69811727
Al      11.07500000      17.15000000      15.12500000      -0.02091834       0.02091834       0.71444559
Al      11.07500000      19.17500000      13.10000000       0.00721559       0.08906977      -0.42567320
Al       9.05000000      21.20000000       5.00000000      -0.04140135      -0.32989776      -0.64091709
Al       9.05000000      23.22500000       7.02500000      -0.02772574       0.59661570       0.23368840
Al      11.07500000      21.20000000       7.02500000       0.00537773      -0.05463323       0.56250078
Al      11.07500000      23.22500000       5.00000000      -0.00767709       0.20321931      -0.17395370
Al       9.05842527      21.23010778       9.06720497       0.00920828      -0.00175987       0.01678388
Al       9.04132484      23.41192085      11.09892183       0.00788945      -0.00298725      -0.01787875
Al      11.06836297      21.26471085      11.05395894       0.00792970      -0.00301894      -0.00122422
Al      11.06466307      23.43227009       9.03199094       0.00681269      -0.00251958       0.02766029
Al       9.05000000      21.20000000      13.10000000      -0.04522519      -0.09117678      -0.55973903
Al       9.05000000      23.22500000      15.12500000      -0.03634895       0.19360713       0.17087916
Al      11.07500000      21.20000000      15.12500000      -0.00733586      -0.33265157       0.63673934
Al      11.07500000      23.22500000      13.10000000      -0.00533955       0.62678712      -0.23578576
Al      13.10000000       5.00000000       5.00000000       0.00271409      -0.20459694      -0.17399282
Al      13.10000000       7.02500000       7.02500000       0.00354410       0.00246773       0.53994825
Al      15.12500000       5.00000000       7.02500000       0.01014489      -0.63608013       0.25272070
Al      15.12500000       7.02500000       5.00000000      -0.00052303       0.32937505      -0.64125928
Al      13.09758873       4.78920848       9.03110516       0.00429831       0.00236295       0.02319646
Al      13.09782153       6.95841123      11.05286357       0.00378552      -0.00407939       0.00149146
Al      15.12680718       4.78925769      11.09361892      -0.00060049       0.00393526      -0.01912365
Al      15.12770540       6.95717396       9.07094574      -0.00002538      -0.00588227       0.00511710
Al      13.10000000       5.00000000      13.10000000      -0.00972615      -0.63004160      -0.25453861
Al      13.10000000       7.02500000      15.12500000       0.00167687       0.33223471       0.64002280
Al      15.12500000       5.00000000      15.12500000      -0.00191774      -0.20202299       0.17323055
Al      15.12500000       7.02500000      13.10000000      -0.00329385       0.00921434      -0.54183063
Al      13.10000000       9.05000000       5.00000000       0.00166389      -0.04638872      -0.70170455
Al      13.10000000      11.07500000       7.02500000      -0.00582654       0.05926419       0.41905790
Al      15.12500000       9.05000000       7.02500000      -0.00053663      -0.12055780       0.40989909
Al      15.12500000      11.07500000       5.00000000       0.00089412      -0.01369018      -0.70351075
Al      13.09979576       9.02228888       9.04949437       0.00040031       0.00578674       0.00994426
Al      13.10031706      11.04647171      11.07701993      -0.00047194       0.01426924      -0.00057307
Al      15.12756140       9.02082690      11.07232360       0.00094052       0.00606003      -0.00120442
Al      15.11274907      11.08329860       9.05992969      -0.00217870       0.01459851       0.01209406
Al      13.10000000       9.05000000      13.10000000       0.00139290      -0.18426842      -0.35097871
Al      13.10000000      11.07500000      15.12500000      -0.00064318      -0.01067541       0.69439354
Al      15.12500000       9.05000000      15.12500000      -0.00177986      -0.04412936       0.69829989
Al      15.12500000      11.07500000      13.10000000      -0.01339743       0.00816481      -0.36416330
Al      13.10000000      13.10000000       5.00000000      -0.00004051       0.00212842      -0.70542907
Al      13.10000000      15.12500000       7.02500000      -0.00925720       0.00925720       0.08325322
Al      15.12500000      13.10000000       7.02500000      -0.04102730       0.04102730       0.35937972
Al      15.12500000      15.12500000       5.00000000      -0.00212842       0.00004051      -0.70542907
Al      13.09805435      13.14166383       9.08542724      -0.00019803       0.02043289       0.01803320
Al      15.05042311      13.17457689      11.09173445       0.00233132      -0.00233132       0.01079194
Al      15.08333617      15.12694565       9.08542724      -0.02043289       0.00019803       0.01803320
Al      13.10000000      13.10000000      13.10000000      -0.01692003       0.39343476      -0.47316047
Al      13.10000000      15.12500000      15.12500000      -0.00076483       0.00076483       0.85436782
Al      15.12500000      13.10000000      15.12500000       0.00770827      -0.00770827       0.71618700
Al      15.12500000      15.12500000      13.10000000      -0.39343476       0.01692003      -0.47316047
Al      13.10000000      17.15000000       5.00000000       0.00030042       0.01126763      -0.70453496
Al      13.10000000      19.17500000       7.02500000       0.00146567       0.05505835       0.47732039
Al      15.12500000      17.15000000       7.02500000      -0.04215372      -0.00441115       0.36940046
Al      15.12500000      19.17500000       5.00000000      -0.00056484       0.04676012      -0.70427990
Al      13.09940426      17.11757096       9.08433299      -0.00129761      -0.02316099       0.02104189
Al      13.09990185      19.22018180      11.07576519      -0.00093940      -0.00764817       0.00101072
Al      15.05078893      17.08480111      11.09114675       0.00202021       0.00009350       0.01007131
Al      15.11378546      19.18419038       9.06015782      -0.00307769      -0.00742265       0.01393656
Al      13.10000000      17.15000000      13.10000000      -0.00818244      -0.36314585      -0.48836065
Al      13.10000000      19.17500000      15.12500000       0.00109234       0.04460154       0.69452531
Al      15.12500000      17.15000000      15.12500000       0.00753751       0.02280528       0.71515233
Al      15.12500000      19.17500000      13.10000000      -0.01963132       0.10591649      -0.42473706
Al      13.10000000      21.20000000       5.00000000       0.00249040      -0.32869871      -0.64170885
Al      13.10000000      23.22500000       7.02500000      -0.00896734       0.64202128       0.25019339
Al      15.12500000      21.20000000       7.02500000      -0.00330131      -0.04178320       0.57870884
Al      15.12500000      23.22500000       5.00000000      -0.00179823       0.20463519      -0.17278166
Al      13.09785996      21.26972243       9.06942897       0.00366202       0.00448943       0.00850502
Al      13.09760673      23.43631371      11.09290840       0.00442404      -0.00746153      -0.01683533
Al      15.12965560      21.27118350      11.05175159      -0.00411248       0.00325351       0.00425207
Al      15.12810045      23.43836358       9.03025478      -0.00279209      -0.00462997       0.02556576
Al      13.10000000      21.20000000      13.10000000       0.00382756       0.02122004      -0.51960602
Al      13.10000000      23.22500000      15.12500000       0.00238825       0.19998276       0.17112011
Al      15.12500000      21.20000000      15.12500000      -0.00268657      -0.33155533       0.63717661
Al      15.12500000      23.22500000      13.10000000       0.00895580       0.63253685      -0.25390395
Al      17.15000000       5.00000000       5.00000000       0.00960873      -0.20206360      -0.17390219
Al      17.15000000       7.02500000       7.02500000      -0.00232453       0.03553109       0.54251725
Al      19.17500000       5.00000000       7.02500000       0.02956044      -0.60059090       0.23429204
Al      19.17500000       7.02500000       5.00000000       0.04291979       0.33018663      -0.63888551
Al      17.15890922       4.79427668       9.03283318      -0.00063436       0.00111455       0.02349016
Al      17.15427220       6.96409021      11.05462335      -0.00198774      -0.00009918      -0.00344844
Al      19.18222199       4.81465621      11.09895607      -0.00208123       0.00097357      -0.01977611
Al      19.16864247       6.99124799       9.06698362      -0.00283047      -0.00108456       0.00753529
Al      17.15000000       5.00000000      13.10000000       0.00629857      -0.62536837      -0.23886307
Al      17.15000000       7.02500000      15.12500000       0.00854690       0.33218753       0.63939723
Al      19.17500000       5.00000000      15.12500000       0.03783302      -0.19507375       0.17192097
Al      19.17500000       7.02500000      13.10000000       0.05227275       0.07666088      -0.55313314
Al      17.15000000       9.05000000       5.00000000       0.01203803      -0.04549064      -0.70088471
Al      17.15000000      11.07500000       7.02500000      -0.00070613       0.00070613       0.37108768
Al      19.17500000       9.05000000       7.02500000       0.09316759      -0.09316759       0.43387566
Al      19.17500000      11.07500000       5.00000000       0.04549064      -0.01203803      -0.70088471
Al      17.14379656       9.04064636       9.05345832       0.00211184       0.00475247       0.01204210
Al      17.12810821      11.09689179      11.07446556      -0.00364030       0.00364030      -0.00102796
Al      19.16849175       9.05650825      11.07331241      -0.00456217       0.00456217      -0.00756171
Al      19.18435364      11.08120344       9.05345832      -0.00475247      -0.00211184       0.01204210
Al      17.15000000       9.05000000      13.10000000       0.00350695      -0.10927841      -0.40086927
Al      17.15000000      11.07500000      15.12500000       0.01114245      -0.01114245       0.69856705
Al      19.17500000       9.05000000      15.12500000       0.04188409      -0.04188409       0.69948349
Al      19.17500000      11.07500000      13.10000000       0.10927841      -0.00350695      -0.40086927
Al      17.15000000      13.10000000       5.00000000       0.01369018      -0.00089412      -0.70351075
Al      17.15000000      15.12500000       7.02500000      -0.05926419       0.00582654       0.41905790
Al      19.17500000      13.10000000       7.02500000       0.12055780       0.00053663       0.40989909
Al      19.17500000      15.12500000       5.00000000       0.04638872      -0.00166389      -0.70170455
Al      17.14170140      13.11225093       9.05992969      -0.01459851       0.00217870       0.01209406
Al      17.17852829      15.12468294      11.07701993      -0.01426924       0.00047194      -0.00057307
Al      19.20417310      13.09743860      11.07232360      -0.00606003      -0.00094052      -0.00120442
Al      19.20271112      15.12520424       9.04949437      -0.00578674      -0.00040031       0.00994426
Al      17.15000000      13.10000000      13.10000000      -0.00816481       0.01339743      -0.36416330
Al      17.15000000      15.12500000      15.12500000       0.01067541       0.00064318       0.69439354
Al      19.17500000      13.10000000      15.12500000       0.04412936       0.00177986       0.69829989
Al      19.17500000      15.12500000      13.10000000       0.18426842      -0.00139290      -0.35097871
Al      17.15000000      17.15000000       5.00000000       0.01204712       0.01291953      -0.70309936
Al      17.15000000      19.17500000       7.02500000      -0.02023494       0.10556115       0.42234526
Al      19.17500000      17.15000000       7.02500000       0.10396999       0.01179622       0.41139765
Al      19.17500000      19.17500000       5.00000000       0.04246707       0.04380500      -0.70124547
Al      17.13732062      17.14150994       9.06106875      -0.01248125      -0.00354942       0.01433293
Al      17.12588602      19.16787858      11.07440021      -0.00425218      -0.00335621      -0.00164439
Al      19.19653675      17.15211489      11.07234263      -0.01065100       0.00034265      -0.00380017
Al      19.17104320      19.17232032       9.05294737      -0.01138602      -0.00439713       0.01728525
Al      17.15000000      17.15000000      13.10000000      -0.01836138       0.01688243      -0.37602032
Al      17.15000000      19.17500000      15.12500000       0.00855138       0.04462904       0.69810700
Al      19.17500000      17.15000000      15.12500000       0.04201682       0.01071313       0.69704942
Al      19.17500000      19.17500000      13.10000000       0.07533825       0.09680386      -0.43762655
Al      17.15000000      21.20000000       5.00000000       0.00888944      -0.32938464      -0.64102804
Al      17.15000000      23.22500000       7.02500000       0.00867757       0.61594042       0.24952385
Al      19.17500000      21.20000000       7.02500000       0.04738019      -0.07639966       0.55455763
Al      19.17500000      23.22500000       5.00000000       0.03768850       0.19680482      -0.17301865
Al      17.14869770      21.25268510       9.07041079      -0.00738419       0.00061259       0.01206576
Al      17.16003876      23.43085692      11.09129199      -0.00650147      -0.00425790      -0.01894106
Al      19.16292769      21.22746509      11.05869152      -0.01044391       0.00109141      -0.00302286
Al      19.18101283      23.40383653       9.02649388      -0.00673544       0.00064400       0.02339194
Al      17.15000000      21.20000000      13.10000000      -0.01345608      -0.05241396      -0.55175510
Al      17.15000000      23.22500000      15.12500000       0.00705369       0.19872206       0.17200537
Al      19.17500000      21.20000000      15.12500000       0.03906514      -0.33161619       0.63781119
Al      19.17500000      23.22500000      13.10000000       0.02536008       0.59200056      -0.23798993
Al      21.20000000       5.00000000       5.00000000      -0.45424042      -0.09313172      -0.08361310
Al      21.20000000       7.02500000       7.02500000      -0.15009157       0.15009157       0.66646405
Al      23.22500000       5.00000000       7.02500000       0.04801102      -0.04801102       0.52541979
Al      23.22500000       7.02500000       5.00000000       0.09313172       0.45424042      -0.08361310
Al      21.17794248       4.87820039       9.04508477       0.00094462      -0.00252912       0.01755823
Al      21.19623141       7.02876859      11.04444323       0.00313465      -0.00313465      -0.00261406
Al      23.24759270       4.97740730      11.07731778       0.00884406      -0.00884406      -0.03814525
Al      23.34679961       7.04705752       9.04508477       0.00252912      -0.00094462       0.01755823
Al      21.20000000       5.00000000      13.10000000      -0.24758479      -0.49451037      -0.37446888
Al      21.20000000       7.02500000      15.12500000      -0.32677908       0.32677908       0.58426428
Al      23.22500000       5.00000000      15.12500000      -0.32790426       0.32790426      -0.33396028
Al      23.22500000       7.02500000      13.10000000       0.49451037       0.24758479      -0.37446888
Al      21.20000000       9.05000000       5.00000000      -0.33018663      -0.04291979      -0.63888551
Al      21.20000000      11.07500000       7.02500000      -0.03553109       0.00232453       0.54251725
Al      23.22500000       9.05000000       7.02500000       0.60059090      -0.02956044       0.23429204
Al      23.22500000      11.07500000       5.00000000       0.20206360      -0.00960873      -0.17390219
Al      21.23375201       9.05635753       9.06698362       0.00108456       0.00283047       0.00753529
Al      21.26090979      11.07072780      11.05462335       0.00009918       0.00198774      -0.00344844
Al      23.41034379       9.04277801      11.09895607      -0.00097357       0.00208123      -0.01977611
Al      23.43072332      11.06609078       9.03283318      -0.00111455       0.00063436       0.02349016
Al      21.20000000       9.05000000      13.10000000      -0.07666088      -0.05227275      -0.55313314
Al      21.20000000      11.07500000      15.12500000      -0.33218753      -0.00854690       0.63939723
Al      23.22500000       9.05000000      15.12500000       0.19507375      -0.03783302       0.17192097
Al      23.22500000      11.07500000      13.10000000       0.62536837      -0.00629857      -0.23886307
Al      21.20000000      13.10000000       5.00000000      -0.32937505       0.00052303      -0.64125928
Al      21.20000000      15.12500000       7.02500000      -0.00246773      -0.00354410       0.53994825
Al      23.22500000      13.10000000       7.02500000       0.63608013      -0.01014489       0.25272070
Al      23.22500000      15.12500000       5.00000000       0.20459694      -0.00271409      -0.17399282
Al      21.26782604      13.09729460       9.07094574       0.00588227       0.00002538       0.00511710
Al      21.26658877      15.12717847      11.05286357       0.00407939      -0.00378552       0.00149146
Al      23.43574231      13.09819282      11.09361892      -0.00393526       0.00060049      -0.01912365
Al      23.43579152      15.12741127       9.03110516      -0.00236295      -0.00429831       0.02319646
Al      21.20000000      13.10000000      13.10000000      -0.00921434       0.00329385      -0.54183063
Al      21.20000000      15.12500000      15.12500000      -0.33223471      -0.00167687       0.64002280
Al      23.22500000      13.10000000      15.12500000       0.20202299       0.00191774       0.17323055
Al      23.22500000      15.12500000      13.10000000       0.63004160       0.00972615      -0.25453861
Al      21.20000000      17.15000000       5.00000000      -0.33022708       0.00867506      -0.64096145
Al      21.20000000      19.17500000       7.02500000      -0.07427285       0.05578806       0.55160621
Al      23.22500000      17.15000000       7.02500000       0.63004097       0.00633824       0.23543661
Al      23.22500000      19.17500000       5.00000000       0.19747663       0.03839402      -0.17290318
Al      21.26126784      17.15485074       9.06897351       0.00014045      -0.00431133       0.01043216
Al      21.23863550      19.17225462      11.05797905      -0.00248627      -0.00486411      -0.00432863
Al      23.42972869      17.15902902      11.09187663      -0.00155550      -0.00418627      -0.02004176
Al      23.41166371      19.18244767       9.02532580       0.00128265      -0.00297996       0.02312379
Al      21.20000000      17.15000000      13.10000000      -0.02320216      -0.00352350      -0.52640345