299
Lattice="28.224999999999998 0.0 0.0 0.0 28.224999999999998 0.0 0.0 0.0 20.125" Properties=species:S:1:pos:R:3:forces:R:3 energy=-16469.309951221825 pbc="T T T"
Al       5.00000000       5.00000000       5.00000000       0.33197539       0.33194084       0.34366008
Al       5.00000000       7.02500000       7.02500000      -0.48393633       0.24510247       0.36491696
Al       7.02500000       5.00000000       7.02500000       0.24187939      -0.48410015       0.35980741
Al       7.02500000       7.02500000       5.00000000       0.31306681       0.31342124      -0.55702881
Al       4.97742003       4.97716677       9.04814028      -0.00969642      -0.00861195       0.07250899
Al       4.88312734       7.04808812      11.07933392      -0.01392515      -0.00684985      -0.03516436
Al       7.04638443       4.87398496      11.07998165      -0.00857898      -0.01308755      -0.03572996
Al       7.02841853       7.02685005       9.08161238      -0.01616734      -0.01365936      -0.00851077
Al       5.00000000       5.00000000      13.10000000      -0.04766880      -0.04356801      -0.51806688
Al       5.00000000       7.02500000      15.12500000      -0.09366286       0.44871677       0.06593253
Al       7.02500000       5.00000000      15.12500000       0.44862420      -0.09426966       0.06474108
Al       7.02500000       7.02500000      13.10000000       0.14682479       0.14811195      -0.65850426
Al       5.00000000       9.05000000       5.00000000      -0.20130692      -0.04355749      -0.15436331
Al       5.00000000      11.07500000       7.02500000      -0.60607727      -0.01274510       0.23496712
Al       7.02500000       9.05000000       7.02500000       0.07090796      -0.05628918       0.54824263
Al       7.02500000      11.07500000       5.00000000       0.31681050      -0.01000243      -0.61338752
Al       4.82107439       9.04377536       9.02670355      -0.01268408      -0.00072750       0.03946463
Al       4.79410691      11.06481030      11.09093265      -0.01089741       0.00118094      -0.03969399
Al       6.99729557       9.06183860      11.05743064      -0.01569273       0.00004700       0.01552428
Al       6.97204962      11.07621306       9.07130027      -0.01414302       0.00238285      -0.01043865
Al       5.00000000       9.05000000      13.10000000      -0.58288901      -0.03439020      -0.22790243
Al       5.00000000      11.07500000      15.12500000      -0.20683781      -0.01095370       0.15541644
Al       7.02500000       9.05000000      15.12500000       0.31617523      -0.04874325       0.61173672
Al       7.02500000      11.07500000      13.10000000       0.04624573       0.00830296      -0.54660841
Al       5.00000000      13.10000000       5.00000000      -0.20858732       0.00193206      -0.15444080
Al       5.00000000      15.12500000       7.02500000      -0.63207801       0.01189500       0.23307229
Al       7.02500000      13.10000000       7.02500000       0.03763937       0.00324979       0.56559623
Al       7.02500000      15.12500000       5.00000000       0.31719668      -0.00154682      -0.61314315
Al       4.78665677      13.09692316       9.03029468      -0.01028562       0.00108277       0.04180506
Al       4.78876357      15.12746479      11.09254184      -0.00844269      -0.00170467      -0.03806162
Al       6.95327172      13.09537229      11.05088304      -0.01262917       0.00334804       0.01847646
Al       6.95479705      15.12730068       9.07000429      -0.01498752      -0.00171158      -0.01249652
Al       5.00000000      13.10000000      13.10000000      -0.62615657      -0.01031043      -0.24080105
Al       5.00000000      15.12500000      15.12500000      -0.20719318      -0.00121363       0.15492820
Al       7.02500000      13.10000000      15.12500000       0.32029383       0.00324942       0.61180482
Al       7.02500000      15.12500000      13.10000000      -0.02389899      -0.00129756      -0.51235039
Al       5.00000000      17.15000000       5.00000000      -0.20713023       0.01077449      -0.15487232
Al       5.00000000      19.17500000       7.02500000      -0.58390349       0.03501680       0.22106450
Al       7.02500000      17.15000000       7.02500000       0.04913259       0.00049854       0.55246765
Al       7.02500000      19.17500000       5.00000000       0.31645048       0.04866724      -0.61195135
Al       4.79275556      17.16058001       9.03213983      -0.01178479      -0.00173207       0.04283825
Al       4.81313044      19.18396814      11.09838606      -0.01082869      -0.00082010      -0.03678493
Al       6.96001568      17.15695548      11.05268361      -0.01072380      -0.00372058       0.01668341
Al       6.99468974      19.16688674       9.06834860      -0.01210423      -0.00037454      -0.00948585
Al       5.00000000      17.15000000      13.10000000      -0.61902219       0.01133942      -0.22588621
Al       5.00000000      19.17500000      15.12500000      -0.20062943       0.04339020       0.15338077
Al       7.02500000      17.15000000      15.12500000       0.32003576       0.00941051       0.61124969
Al       7.02500000      19.17500000      13.10000000       0.08445134       0.05503096      -0.55829477
Al       5.00000000      21.20000000       5.00000000      -0.09398429      -0.44900542      -0.06597424
Al       5.00000000      23.22500000       7.02500000      -0.04579275       0.04579275       0.51954742
Al       7.02500000      21.20000000       7.02500000       0.15327482      -0.15327482       0.65325143
Al       7.02500000      23.22500000       5.00000000       0.44900542       0.09398429      -0.06597424
Al       4.88160038      21.17660438       9.04469112      -0.01377261       0.00669945       0.03791076
Al       4.98097851      23.24402149      11.07516393      -0.00892816       0.00892816      -0.06979989
Al       7.03392648      21.19107352      11.04424337      -0.01206442       0.01206442       0.01249486
Al       7.04839562      23.34339962       9.04469112      -0.00669945       0.01377261       0.03791076
Al       5.00000000      21.20000000      13.10000000      -0.47600202      -0.24467979      -0.36280253
Al       5.00000000      23.22500000      15.12500000       0.33302627      -0.33302627      -0.34264814
Al       7.02500000      21.20000000      15.12500000       0.31428358      -0.31428358       0.55719833
Al       7.02500000      23.22500000      13.10000000       0.24467979       0.47600202      -0.36280253
Al       9.05000000       5.00000000       5.00000000      -0.04395128      -0.20198503      -0.15340281
Al       9.05000000       7.02500000       7.02500000      -0.06346923       0.06746280       0.54625837
Al      11.07500000       5.00000000       7.02500000      -0.01118237      -0.61960893       0.22283307
Al      11.07500000       7.02500000       5.00000000      -0.01038342       0.31705169      -0.61244860
Al       9.04220456       4.81320638       9.02557824      -0.00240157      -0.01315503       0.03949107
Al       9.05239942       6.98608695      11.05667322      -0.00271743      -0.01392829       0.01550032
Al      11.06570439       4.79521208      11.09150728      -0.00008998      -0.01279673      -0.03929439
Al      11.06987167       6.96345189       9.07001347       0.00048863      -0.01543035      -0.01239925
Al       9.05000000       5.00000000      13.10000000      -0.03480134      -0.59519242      -0.21556406
Al       9.05000000       7.02500000      15.12500000      -0.04907201       0.31624018       0.61081322
Al      11.07500000       5.00000000      15.12500000      -0.01131466      -0.20718361       0.15522678
Al      11.07500000       7.02500000      13.10000000      -0.00074413       0.01503587      -0.52221236
Al       9.05000000       9.05000000       5.00000000      -0.04904351      -0.04829776      -0.67327702
Al       9.05000000      11.07500000       7.02500000      -0.10917160       0.01839318       0.41459903
Al      11.07500000       9.05000000       7.02500000      -0.01345864      -0.10875547       0.40493060
Al      11.07500000      11.07500000       5.00000000      -0.01017902      -0.00926610      -0.67179285
Al       9.05241783       9.05380303       9.05429326      -0.00376415       0.00100660      -0.01459502
Al       9.05688215      11.09884473      11.07303315      -0.00244238       0.00366201       0.02389279
Al      11.07244754       9.02827538      11.07094144       0.00086790       0.00234465       0.02293170
Al      11.08330721      11.08766658       9.06197245       0.00304604       0.01182936      -0.01629771
Al       9.05000000       9.05000000      13.10000000      -0.10356270      -0.08522881      -0.43772979
Al       9.05000000      11.07500000      15.12500000      -0.04616225      -0.00740680       0.67183252
Al      11.07500000       9.05000000      15.12500000      -0.00931122      -0.04584058       0.66990657
Al      11.07500000      11.07500000      13.10000000      -0.01352261       0.01957088      -0.36873390
Al       9.05000000      13.10000000       5.00000000      -0.04836336       0.00198366      -0.67429337
Al       9.05000000      15.12500000       7.02500000      -0.05747745      -0.00046387       0.46644933
Al      11.07500000      13.10000000       7.02500000       0.00846823       0.04480112       0.35602934
Al      11.07500000      15.12500000       5.00000000      -0.00726044      -0.00194941      -0.67112477
Al       9.04053706      13.11120945       9.06103032       0.00425703       0.00364796      -0.01378852
Al       9.00456516      15.12541234      11.07448556       0.00306395      -0.00027936       0.02484941
Al      11.14025538      13.17424649      11.09004852       0.00212227       0.00259144       0.03197828
Al      11.10718846      15.12584793       9.08484698       0.03359171      -0.00122433      -0.00150151
Al       9.05000000      13.10000000      13.10000000      -0.10625723       0.02086926      -0.41872249
Al       9.05000000      15.12500000      15.12500000      -0.04306411      -0.00155539       0.66649011
Al      11.07500000      13.10000000      15.12500000      -0.01678548      -0.00480876       0.68481745
Al      11.07500000      15.12500000      13.10000000       0.36443000       0.00668133      -0.47613825
Al       9.05000000      17.15000000       5.00000000      -0.04891914       0.01088769      -0.67470028
Al       9.05000000      19.17500000       7.02500000      -0.08048692       0.08048692       0.45121735
Al      11.07500000      17.15000000       7.02500000       0.01551733      -0.01551733       0.36531449
Al      11.07500000      19.17500000       5.00000000      -0.01088769       0.04891914      -0.67470028
Al       9.04808841      17.13932152       9.06134042       0.00553155      -0.00294030      -0.01164578
Al       9.07065569      19.15434431      11.07333043       0.00053521      -0.00053521       0.02197486
Al      11.14516488      17.07983512      11.08899565       0.00072844      -0.00072844       0.03148171
Al      11.08567848      19.17691159       9.06134042       0.00294030      -0.00553155      -0.01164578
Al       9.05000000      17.15000000      13.10000000      -0.09308792      -0.00483440      -0.42153755
Al       9.05000000      19.17500000      15.12500000      -0.04603217       0.04603217       0.67246211
Al      11.07500000      17.15000000      15.12500000      -0.01744413       0.01744413       0.68638417
Al      11.07500000      19.17500000      13.10000000       0.00483440       0.09308792      -0.42153755
Al       9.05000000      21.20000000       5.00000000      -0.04866724      -0.31645048      -0.61195135
Al       9.05000000      23.22500000       7.02500000      -0.03501680       0.58390349       0.22106450
Al      11.07500000      21.20000000       7.02500000      -0.00049854      -0.04913259       0.55246765
Al      11.07500000      23.22500000       5.00000000      -0.01077449       0.20713023      -0.15487232
Al       9.05811326      21.23031026       9.06834860       0.00037454       0.01210423      -0.00948585
Al       9.04103186      23.41186956      11.09838606       0.00082010       0.01082869      -0.03678493
Al      11.06804452      21.26498432      11.05268361       0.00372058       0.01072380       0.01668341
Al      11.06441999      23.43224444       9.03213983       0.00173207       0.01178479       0.04283825
Al       9.05000000      21.20000000      13.10000000      -0.05503096      -0.08445134      -0.55829477
Al       9.05000000      23.22500000      15.12500000      -0.04339020       0.20062943       0.15338077
Al      11.07500000      21.20000000      15.12500000      -0.00941051      -0.32003576       0.61124969
Al      11.07500000      23.22500000      13.10000000      -0.01133942       0.61902219      -0.22588621
Al      13.10000000       5.00000000       5.00000000       0.00142416      -0.20901084      -0.15499758
Al      13.10000000       7.02500000       7.02500000       0.00120200      -0.00181850       0.52967473
Al      15.12500000       5.00000000       7.02500000       0.01055717      -0.62694764       0.23771905
Al      15.12500000       7.02500000       5.00000000      -0.00178158       0.31741199      -0.61287341
Al      13.09748405       4.78914253       9.03121240       0.00201643      -0.01215572       0.04098756
Al      13.09773180       6.95781541      11.05195379       0.00205689      -0.01530142       0.01818469
Al      15.12680844       4.78926228      11.09332218       0.00131490      -0.01126550      -0.03840606
Al      15.12765991       6.95663457       9.07166231       0.00111931      -0.01703594      -0.01411990
Al      13.10000000       5.00000000      13.10000000      -0.01155923      -0.62225373      -0.24163674
Al      13.10000000       7.02500000      15.12500000       0.00193148       0.31822636       0.61253736
Al      15.12500000       5.00000000      15.12500000      -0.00077859      -0.20839725       0.15474665
Al      15.12500000       7.02500000      13.10000000      -0.00207982       0.00295719      -0.53405621
Al      13.10000000       9.05000000       5.00000000       0.00187968      -0.04781605      -0.67123846
Al      13.10000000      11.07500000       7.02500000      -0.00464861       0.06200245       0.40519681
Al      15.12500000       9.05000000       7.02500000      -0.00232204      -0.12220780       0.40210060
Al      15.12500000      11.07500000       5.00000000      -0.00204668      -0.00887134      -0.67023361
Al      13.09956691       9.02208290       9.05054190       0.00133081      -0.00048561      -0.01920523
Al      13.10016107      11.04667925      11.07582003       0.00145362       0.01107172       0.02790015
Al      15.12769196       9.02054479      11.07110219      -0.00094757       0.00132880       0.02413652
Al      15.11275815      11.08350448       9.06078678      -0.00351634       0.01252798      -0.01786916
Al      13.10000000       9.05000000      13.10000000       0.00202703      -0.18511755      -0.34756511
Al      13.10000000      11.07500000      15.12500000       0.00224150      -0.00385056       0.66212010
Al      15.12500000       9.05000000      15.12500000      -0.00278126      -0.04540971       0.66938853
Al      15.12500000      11.07500000      13.10000000      -0.01547382       0.01158968      -0.35380754
Al      13.10000000      13.10000000       5.00000000       0.00224131       0.00489547      -0.66916232
Al      13.10000000      15.12500000       7.02500000      -0.00695660       0.00695660       0.06962539
Al      15.12500000      13.10000000       7.02500000      -0.04472971       0.04472971       0.34256292
Al      15.12500000      15.12500000       5.00000000      -0.00489547      -0.00224131      -0.66916232
Al      13.09794862      13.14147185       9.08583971       0.00132669       0.03352333      -0.00556094
Al      15.05038348      13.17461652      11.09073924      -0.00178672       0.00178672       0.03498769
Al      15.08352815      15.12705138       9.08583971      -0.03352333      -0.00132669      -0.00556094
Al      13.10000000      13.10000000      13.10000000      -0.01351821       0.39243329      -0.45667657
Al      13.10000000      15.12500000      15.12500000       0.00229773      -0.00229773       0.82379701
Al      15.12500000      13.10000000      15.12500000       0.00479421      -0.00479421       0.68228164
Al      15.12500000      15.12500000      13.10000000      -0.39243329       0.01351821      -0.45667657
Al      13.10000000      17.15000000       5.00000000       0.00194941       0.00726044      -0.67112477
Al      13.10000000      19.17500000       7.02500000       0.00046387       0.05747745       0.46644933
Al      15.12500000      17.15000000       7.02500000      -0.04480112      -0.00846823       0.35602934
Al      15.12500000      19.17500000       5.00000000      -0.00198366       0.04836336      -0.67429337
Al      13.09915207      17.11781154       9.08484698       0.00122433      -0.03359171      -0.00150151
Al      13.09958766      19.22043484      11.07448556       0.00027936      -0.00306395       0.02484941
Al      15.05075351      17.08474462      11.09004852      -0.00259144      -0.00212227       0.03197828
Al      15.11379055      19.18446294       9.06103032      -0.00364796      -0.00425703      -0.01378852
Al      13.10000000      17.15000000      13.10000000      -0.00668133      -0.36443000      -0.47613825
Al      13.10000000      19.17500000      15.12500000       0.00155539       0.04306411       0.66649011
Al      15.12500000      17.15000000      15.12500000       0.00480876       0.01678548       0.68481745
Al      15.12500000      19.17500000      13.10000000      -0.02086926       0.10625723      -0.41872249
Al      13.10000000      21.20000000       5.00000000       0.00154682      -0.31719668      -0.61314315
Al      13.10000000      23.22500000       7.02500000      -0.01189500       0.63207801       0.23307229
Al      15.12500000      21.20000000       7.02500000      -0.00324979      -0.03763937       0.56559623
Al      15.12500000      23.22500000       5.00000000      -0.00193206       0.20858732      -0.15444080
Al      13.09769932      21.27020295       9.07000429       0.00171158       0.01498752      -0.01249652
Al      13.09753521      23.43623643      11.09254184       0.00170467       0.00844269      -0.03806162
Al      15.12962771      21.27172828      11.05088304      -0.00334804       0.01262917       0.01847646
Al      15.12807684      23.43834323       9.03029468      -0.00108277       0.01028562       0.04180506
Al      13.10000000      21.20000000      13.10000000       0.00129756       0.02389899      -0.51235039
Al      13.10000000      23.22500000      15.12500000       0.00121363       0.20719318       0.15492820
Al      15.12500000      21.20000000      15.12500000      -0.00324942      -0.32029383       0.61180482
Al      15.12500000      23.22500000      13.10000000       0.01031043       0.62615657      -0.24080105
Al      17.15000000       5.00000000       5.00000000       0.01172883      -0.20788251      -0.15528714
Al      17.15000000       7.02500000       7.02500000       0.00037054       0.02909590       0.53483996
Al      19.17500000       5.00000000       7.02500000       0.03589620      -0.59035891       0.22241236
Al      19.17500000       7.02500000       5.00000000       0.04983711       0.31533779      -0.61147014
Al      17.15909556       4.79408962       9.03297521       0.00334219      -0.01257896       0.04230333
Al      17.15443326       6.96376096      11.05357466       0.00259547      -0.01563789       0.01514754
Al      19.18250896       4.81453210      11.09863347       0.00420899      -0.01069056      -0.03768473
Al      19.16888848       6.99099332       9.06799600       0.00595200      -0.01649686      -0.01143474
Al      17.15000000       5.00000000      13.10000000       0.01114686      -0.61661367      -0.22721752
Al      17.15000000       7.02500000      15.12500000       0.01127061       0.31673237       0.61192600
Al      19.17500000       5.00000000      15.12500000       0.04450308      -0.20072634       0.15258792
Al      19.17500000       7.02500000      13.10000000       0.06167929       0.06818652      -0.54857592
Al      17.15000000       9.05000000       5.00000000       0.01047944      -0.04861407      -0.67254873
Al      17.15000000      11.07500000       7.02500000      -0.00301722       0.00301722       0.36136680
Al      19.17500000       9.05000000       7.02500000       0.10012155      -0.10012155       0.43043358
Al      19.17500000      11.07500000       5.00000000       0.04861407      -0.01047944      -0.67254873
Al      17.14409843       9.04043667       9.05458461       0.00201233      -0.00241160      -0.01655325
Al      17.12820388      11.09679612      11.07327744      -0.00314146       0.00314146       0.02716283
Al      19.16872565       9.05627435      11.07197730       0.00515890      -0.00515890       0.01922872
Al      19.18456333      11.08090157       9.05458461       0.00241160      -0.00201233      -0.01655325
Al      17.15000000       9.05000000      13.10000000       0.00528269      -0.11436584      -0.39759131
Al      17.15000000      11.07500000      15.12500000       0.00719211      -0.00719211       0.66853522
Al      19.17500000       9.05000000      15.12500000       0.04943966      -0.04943966       0.67237800
Al      19.17500000      11.07500000      13.10000000       0.11436584      -0.00528269      -0.39759131
Al      17.15000000      13.10000000       5.00000000       0.00887134       0.00204668      -0.67023361
Al      17.15000000      15.12500000       7.02500000      -0.06200245       0.00464861       0.40519681
Al      19.17500000      13.10000000       7.02500000       0.12220780       0.00232204       0.40210060
Al      19.17500000      15.12500000       5.00000000       0.04781605      -0.00187968      -0.67123846
Al      17.14149552      13.11224185       9.06078678      -0.01252798       0.00351634      -0.01786916
Al      17.17832075      15.12483893      11.07582003      -0.01107172      -0.00145362       0.02790015
Al      19.20445521      13.09730804      11.07110219      -0.00132880       0.00094757       0.02413652
Al      19.20291710      15.12543309       9.05054190       0.00048561      -0.00133081      -0.01920523
Al      17.15000000      13.10000000      13.10000000      -0.01158968       0.01547382      -0.35380754
Al      17.15000000      15.12500000      15.12500000       0.00385056      -0.00224150       0.66212010
Al      19.17500000      13.10000000      15.12500000       0.04540971       0.00278126       0.66938853
Al      19.17500000      15.12500000      13.10000000       0.18511755      -0.00202703      -0.34756511
Al      17.15000000      17.15000000       5.00000000       0.00926610       0.01017902      -0.67179285
Al      17.15000000      19.17500000       7.02500000      -0.01839318       0.10917160       0.41459903
Al      19.17500000      17.15000000       7.02500000       0.10875547       0.01345864       0.40493060
Al      19.17500000      19.17500000       5.00000000       0.04829776       0.04904351      -0.67327702
Al      17.13733342      17.14169279       9.06197245      -0.01182936      -0.00304604      -0.01629771
Al      17.12615527      19.16811785      11.07303315      -0.00366201       0.00244238       0.02389279
Al      19.19672462      17.15255246      11.07094144      -0.00234465      -0.00086790       0.02293170
Al      19.17119697      19.17258217       9.05429326      -0.00100660       0.00376415      -0.01459502
Al      17.15000000      17.15000000      13.10000000      -0.01957088       0.01352261      -0.36873390
Al      17.15000000      19.17500000      15.12500000       0.00740680       0.04616225       0.67183252
Al      19.17500000      17.15000000      15.12500000       0.04584058       0.00931122       0.66990657
Al      19.17500000      19.17500000      13.10000000       0.08522881       0.10356270      -0.43772979
Al      17.15000000      21.20000000       5.00000000       0.01000243      -0.31681050      -0.61338752
Al      17.15000000      23.22500000       7.02500000       0.01274510       0.60607727       0.23496712
Al      19.17500000      21.20000000       7.02500000       0.05628918      -0.07090796       0.54824263
Al      19.17500000      23.22500000       5.00000000       0.04355749       0.20130692      -0.15436331
Al      17.14878694      21.25295038       9.07130027      -0.00238285       0.01414302      -0.01043865
Al      17.16018970      23.43089309      11.09093265      -0.00118094       0.01089741      -0.03969399
Al      19.16316140      21.22770443      11.05743064      -0.00004700       0.01569273       0.01552428
Al      19.18122464      23.40392561       9.02670355       0.00072750       0.01268408       0.03946463
Al      17.15000000      21.20000000      13.10000000      -0.00830296      -0.04624573      -0.54660841
Al      17.15000000      23.22500000      15.12500000       0.01095370       0.20683781       0.15541644
Al      19.17500000      21.20000000      15.12500000       0.04874325      -0.31617523       0.61173672
Al      19.17500000      23.22500000      13.10000000       0.03439020       0.58288901      -0.22790243
Al      21.20000000       5.00000000       5.00000000      -0.44829691      -0.09425163      -0.06513309
Al      21.20000000       7.02500000       7.02500000      -0.14543824       0.14543824       0.65744511
Al      23.22500000       5.00000000       7.02500000       0.04623934      -0.04623934       0.51741008
Al      23.22500000       7.02500000       5.00000000       0.09425163       0.44829691      -0.06513309
Al      21.17813541       4.87808799       9.04522477       0.00851604      -0.01175142       0.03787084
Al      21.19657170       7.02842830      11.04364582       0.01536292      -0.01536292       0.01095803
Al      23.24764852       4.97735148      11.07701640       0.00689782      -0.00689782      -0.07155554
Al      23.34691201       7.04686459       9.04522477       0.01175142      -0.00851604       0.03787084
Al      21.20000000       5.00000000      13.10000000      -0.24387938      -0.48146532      -0.36206047
Al      21.20000000       7.02500000      15.12500000      -0.31316395       0.31316395       0.55553194
Al      23.22500000       5.00000000      15.12500000      -0.33303370       0.33303370      -0.34468779
Al      23.22500000       7.02500000      13.10000000       0.48146532       0.24387938      -0.36206047
Al      21.20000000       9.05000000       5.00000000      -0.31533779      -0.04983711      -0.61147014
Al      21.20000000      11.07500000       7.02500000      -0.02909590      -0.00037054       0.53483996
Al      23.22500000       9.05000000       7.02500000       0.59035891      -0.03589620       0.22241236
Al      23.22500000      11.07500000       5.00000000       0.20788251      -0.01172883      -0.15528714
Al      21.23400668       9.05611152       9.06799600       0.01649686      -0.00595200      -0.01143474
Al      21.26123904      11.07056674      11.05357466       0.01563789      -0.00259547       0.01514754
Al      23.41046790       9.04249104      11.09863347       0.01069056      -0.00420899      -0.03768473
Al      23.43091038      11.06590444       9.03297521       0.01257896      -0.00334219       0.04230333
Al      21.20000000       9.05000000      13.10000000      -0.06818652      -0.06167929      -0.54857592
Al      21.20000000      11.07500000      15.12500000      -0.31673237      -0.01127061       0.61192600
Al      23.22500000       9.05000000      15.12500000       0.20072634      -0.04450308       0.15258792
Al      23.22500000      11.07500000      13.10000000       0.61661367      -0.01114686      -0.22721752
Al      21.20000000      13.10000000       5.00000000      -0.31741199       0.00178158      -0.61287341
Al      21.20000000      15.12500000       7.02500000       0.00181850      -0.00120200       0.52967473
Al      23.22500000      13.10000000       7.02500000       0.62694764      -0.01055717       0.23771905
Al      23.22500000      15.12500000       5.00000000       0.20901084      -0.00142416      -0.15499758
Al      21.26836543      13.09734009       9.07166231       0.01703594      -0.00111931      -0.01411990
Al      21.26718459      15.12726820      11.05195379       0.01530142      -0.00205689       0.01818469
Al      23.43573772      13.09819156      11.09332218       0.01126550      -0.00131490      -0.03840606
Al      23.43585747      15.12751595       9.03121240       0.01215572      -0.00201643       0.04098756
Al      21.20000000      13.10000000      13.10000000      -0.00295719       0.00207982      -0.53405621
Al      21.20000000      15.12500000      15.12500000      -0.31822636      -0.00193148       0.61253736
Al      23.22500000      13.10000000      15.12500000       0.20839725       0.00077859       0.15474665
Al      23.22500000      15.12500000      13.10000000       0.62225373       0.01155923      -0.24163674
Al      21.20000000      17.15000000       5.00000000      -0.31705169       0.01038342      -0.61244860
Al      21.20000000      19.17500000       7.02500000      -0.06746280       0.06346923       0.54625837
Al      23.22500000      17.15000000       7.02500000       0.61960893       0.01118237       0.22283307
Al      23.22500000      19.17500000       5.00000000       0.20198503       0.04395128      -0.15340281
Al      21.26154811      17.15512833       9.07001347       0.01543035      -0.00048863      -0.01239925
Al      21.23891305      19.17260058      11.05667322       0.01392829       0.00271743       0.01550032
Al      23.42978792      17.15929561      11.09150728       0.01279673       0.00008998      -0.03929439
Al      23.41179362      19.18279544       9.02557824       0.01315503       0.00240157       0.03949107
Al      21.20000000      17.15000000      13.10000000      -0.01503587       0.00074413      -0.52221236