299
Lattice="28.224999999999998 0.0 0.0 0.0 28.224999999999998 0.0 0.0 0.0 20.125" Properties=species:S:1:pos:R:3:forces:R:3 energy=-16469.299402922556 pbc="T T T"
Al       5.00000000       5.00000000       5.00000000       0.32591910       0.32566368       0.33457004
Al       5.00000000       7.02500000       7.02500000      -0.50160725       0.24359518       0.37118312
Al       7.02500000       5.00000000       7.02500000       0.24082639      -0.50200775       0.36619577
Al       7.02500000       7.02500000       5.00000000       0.32363077       0.32348113      -0.58935981
Al       4.97739414       4.97717958       9.04626432      -0.01074612      -0.01001816       0.05866044
Al       4.88306856       7.04821830      11.08174142      -0.00538686      -0.00159531      -0.04063939
Al       7.04649651       4.87395512      11.08238586      -0.00280326      -0.00486982      -0.04105322
Al       7.02848977       7.02695210       9.07895519      -0.00753004      -0.00603638       0.03710618
Al       5.00000000       5.00000000      13.10000000      -0.05277653      -0.04896799      -0.52029624
Al       5.00000000       7.02500000      15.12500000      -0.09511860       0.45380451       0.08451894
Al       7.02500000       5.00000000      15.12500000       0.45396295      -0.09591406       0.08331740
Al       7.02500000       7.02500000      13.10000000       0.14704936       0.14809401      -0.66001908
Al       5.00000000       9.05000000       5.00000000      -0.20001371      -0.03723833      -0.17548064
Al       5.00000000      11.07500000       7.02500000      -0.62238954      -0.00806020       0.23681601
Al       7.02500000       9.05000000       7.02500000       0.07184845      -0.04991040       0.54536783
Al       7.02500000      11.07500000       5.00000000       0.33067169      -0.00536308      -0.64852367
Al       4.82108927       9.04395777       9.02434011      -0.00538232       0.00189568       0.04909226
Al       4.79415875      11.06487939      11.09336921      -0.00283741       0.00504813      -0.04372658
Al       6.99735389       9.06201146      11.06031475      -0.00584204       0.00268748      -0.03002081
Al       6.97188221      11.07622860       9.06855007      -0.00269917       0.00722181       0.03882913
Al       5.00000000       9.05000000      13.10000000      -0.59778739      -0.02873000      -0.22913767
Al       5.00000000      11.07500000      15.12500000      -0.20189745      -0.00604969       0.17541474
Al       7.02500000       9.05000000      15.12500000       0.33071516      -0.03919309       0.64452060
Al       7.02500000      11.07500000      13.10000000       0.04729079       0.01320903      -0.53906522
Al       5.00000000      13.10000000       5.00000000      -0.20531632       0.00343578      -0.17565042
Al       5.00000000      15.12500000       7.02500000      -0.64804509       0.01061023       0.23501127
Al       7.02500000      13.10000000       7.02500000       0.03792444       0.00517070       0.56171535
Al       7.02500000      15.12500000       5.00000000       0.33073556      -0.00303557      -0.64817381
Al       4.78666414      13.09695017       9.02804794      -0.00300799       0.00259707       0.04872406
Al       4.78882737      15.12748012      11.09495691      -0.00089862      -0.00260525      -0.04130361
Al       6.95309109      13.09548039      11.05377244      -0.00188305       0.00380127      -0.02568647
Al       6.95455380      15.12728790       9.06738156      -0.00289204      -0.00216182       0.03586351
Al       5.00000000      13.10000000      13.10000000      -0.64032414      -0.00827194      -0.23990854
Al       5.00000000      15.12500000      15.12500000      -0.20227768      -0.00269237       0.17444501
Al       7.02500000      13.10000000      15.12500000       0.33307272       0.00415153       0.64499083
Al       7.02500000      15.12500000      13.10000000      -0.02569668      -0.00259722      -0.50484103
Al       5.00000000      17.15000000       5.00000000      -0.20447246       0.00692625      -0.17600155
Al       5.00000000      19.17500000       7.02500000      -0.60034860       0.03120796       0.22524019
Al       7.02500000      17.15000000       7.02500000       0.04994751      -0.00374237       0.54922845
Al       7.02500000      19.17500000       5.00000000       0.32881280       0.04069441      -0.64596319
Al       4.79279770      17.16053882       9.02986532      -0.00443386      -0.00444346       0.05056976
Al       4.81324023      19.18376559      11.10085638      -0.00312388      -0.00248513      -0.04294161
Al       6.95993815      17.15699211      11.05566969      -0.00000065      -0.00723213      -0.02858849
Al       6.99478847      19.16675800       9.06573667      -0.00419584      -0.00227977       0.03920241
Al       5.00000000      17.15000000      13.10000000      -0.63380220       0.00743291      -0.22559561
Al       5.00000000      19.17500000      15.12500000      -0.19751758       0.03704861       0.17244622
Al       7.02500000      17.15000000      15.12500000       0.33264565       0.00529430       0.64414557
Al       7.02500000      19.17500000      13.10000000       0.08512926       0.04953786      -0.55328920
Al       5.00000000      21.20000000       5.00000000      -0.09672538      -0.45277711      -0.08437357
Al       5.00000000      23.22500000       7.02500000      -0.05128038       0.05128038       0.52385016
Al       7.02500000      21.20000000       7.02500000       0.15140047      -0.15140047       0.65802392
Al       7.02500000      23.22500000       5.00000000       0.45277711       0.09672538      -0.08437357
Al       4.88156452      21.17647148       9.04239276      -0.00546650       0.00212726       0.04602121
Al       4.98099757      23.24400243      11.07708689      -0.00938297       0.00938297      -0.05443218
Al       7.03411045      21.19088955      11.04702740      -0.00518722       0.00518722      -0.02917800
Al       7.04852852      23.34343548       9.04239276      -0.00212726       0.00546650       0.04602121
Al       5.00000000      21.20000000      13.10000000      -0.49139304      -0.24384120      -0.36832718
Al       5.00000000      23.22500000      15.12500000       0.32835692      -0.32835692      -0.33499748
Al       7.02500000      21.20000000      15.12500000       0.32496049      -0.32496049       0.58684896
Al       7.02500000      23.22500000      13.10000000       0.24384120       0.49139304      -0.36832718
Al       9.05000000       5.00000000       5.00000000      -0.03700179      -0.20064123      -0.17432580
Al       9.05000000       7.02500000       7.02500000      -0.05615813       0.06798763       0.54344256
Al      11.07500000       5.00000000       7.02500000      -0.00561556      -0.63567165       0.22467440
Al      11.07500000       7.02500000       5.00000000      -0.00461986       0.33073523      -0.64718256
Al       9.04240032       4.81322828       9.02319481       0.00087133      -0.00573661       0.04910289
Al       9.05258283       6.98617654      11.05956194       0.00079888      -0.00472308      -0.03042911
Al      11.06580471       4.79526254      11.09394990       0.00459290      -0.00408375      -0.04390858
Al      11.06991961       6.96328689       9.06721883       0.00627192      -0.00350868       0.03792574
Al       9.05000000       5.00000000      13.10000000      -0.02860960      -0.61028688      -0.21698388
Al       9.05000000       7.02500000      15.12500000      -0.03860978       0.33065331       0.64361571
Al      11.07500000       5.00000000      15.12500000      -0.00568545      -0.20167329       0.17512239
Al      11.07500000       7.02500000      13.10000000       0.00607259       0.01623765      -0.51446388
Al       9.05000000       9.05000000       5.00000000      -0.03877786      -0.03905139      -0.71043519
Al       9.05000000      11.07500000       7.02500000      -0.10287129       0.02252442       0.40478738
Al      11.07500000       9.05000000       7.02500000      -0.00831985      -0.10341280       0.39508555
Al      11.07500000      11.07500000       5.00000000      -0.00538022      -0.00570922      -0.71187219
Al       9.05233765       9.05373614       9.05148962       0.00332243       0.00611003       0.04046681
Al       9.05673314      11.09879623      11.07619285       0.00471678       0.00780164      -0.02877965
Al      11.07242318       9.02813486      11.07411679       0.00676941       0.00808847      -0.03010682
Al      11.08316548      11.08753915       9.05917664       0.00996570       0.01421036       0.04016008
Al       9.05000000       9.05000000      13.10000000      -0.09629912      -0.07879701      -0.42511695
Al       9.05000000      11.07500000      15.12500000      -0.03737634      -0.00473397       0.70815991
Al      11.07500000       9.05000000      15.12500000      -0.00404048      -0.03797574       0.70592141
Al      11.07500000      11.07500000      13.10000000      -0.00901815       0.02300330      -0.35580529
Al       9.05000000      13.10000000       5.00000000      -0.03906544       0.00316732      -0.71316459
Al       9.05000000      15.12500000       7.02500000      -0.05233393      -0.00094109       0.45722109
Al      11.07500000      13.10000000       7.02500000       0.01130110       0.04450336       0.34443306
Al      11.07500000      15.12500000       5.00000000      -0.00351493      -0.00313281      -0.71258724
Al       9.04041740      13.11137961       9.05836678       0.00763900       0.00285434       0.03955373
Al       9.00442046      15.12535731      11.07753050       0.00841733       0.00031513      -0.02612270
Al      11.13987253      13.17429183      11.09325993       0.00935405      -0.00043147      -0.01875259
Al      11.10708009      15.12580975       9.08239386       0.02465927      -0.00094987       0.04388392
Al       9.05000000      13.10000000      13.10000000      -0.10049222       0.02183245      -0.40663210
Al       9.05000000      15.12500000      15.12500000      -0.03577335      -0.00305977       0.70345288
Al      11.07500000      13.10000000      15.12500000      -0.01218352      -0.00432960       0.72199936
Al      11.07500000      15.12500000      13.10000000       0.37391286       0.00581324      -0.46524863
Al       9.05000000      17.15000000       5.00000000      -0.03934125       0.00633930      -0.71268903
Al       9.05000000      19.17500000       7.02500000      -0.07414340       0.07414340       0.44349250
Al      11.07500000      17.15000000       7.02500000       0.01739705      -0.01739705       0.35386181
Al      11.07500000      19.17500000       5.00000000      -0.00633930       0.03934125      -0.71268903
Al       9.04790886      17.13945418       9.05864070       0.01004906      -0.00745063       0.04172851
Al       9.07055865      19.15444135      11.07637299       0.00602833      -0.00602833      -0.02866836
Al      11.14493753      17.08006247      11.09220444       0.00393589      -0.00393589      -0.01884983
Al      11.08554582      19.17709114       9.05864070       0.00745063      -0.01004906       0.04172851
Al       9.05000000      17.15000000      13.10000000      -0.08691571      -0.00819430      -0.41048592
Al       9.05000000      19.17500000      15.12500000      -0.03810985       0.03810985       0.70727898
Al      11.07500000      17.15000000      15.12500000      -0.01305713       0.01305713       0.72272251
Al      11.07500000      19.17500000      13.10000000       0.00819430       0.08691571      -0.41048592
Al       9.05000000      21.20000000       5.00000000      -0.04069441      -0.32881280      -0.64596319
Al       9.05000000      23.22500000       7.02500000      -0.03120796       0.60034860       0.22524019
Al      11.07500000      21.20000000       7.02500000       0.00374237      -0.04994751       0.54922845
Al      11.07500000      23.22500000       5.00000000      -0.00692625       0.20447246      -0.17600155
Al       9.05824200      21.23021153       9.06573667       0.00227977       0.00419584       0.03920241
Al       9.04123441      23.41175977      11.10085638       0.00248513       0.00312388      -0.04294161
Al      11.06800789      21.26506185      11.05566969       0.00723213       0.00000065      -0.02858849
Al      11.06446118      23.43220230       9.02986532       0.00444346       0.00443386       0.05056976
Al       9.05000000      21.20000000      13.10000000      -0.04953786      -0.08512926      -0.55328920
Al       9.05000000      23.22500000      15.12500000      -0.03704861       0.19751758       0.17244622
Al      11.07500000      21.20000000      15.12500000      -0.00529430      -0.33264565       0.64414557
Al      11.07500000      23.22500000      13.10000000      -0.00743291       0.63380220      -0.22559561
Al      13.10000000       5.00000000       5.00000000       0.00350604      -0.20476778      -0.17564216
Al      13.10000000       7.02500000       7.02500000       0.00418140      -0.00223593       0.52530289
Al      15.12500000       5.00000000       7.02500000       0.00920570      -0.64142716       0.23983065
Al      15.12500000       7.02500000       5.00000000      -0.00298331       0.33126671      -0.64708804
Al      13.09755649       4.78915518       9.02893082       0.00413765      -0.00385452       0.04816207
Al      13.09788414       6.95764589      11.05486381       0.00406543      -0.00367263      -0.02616746
Al      15.12687817       4.78935394      11.09571004      -0.00001149      -0.00196929      -0.04199979
Al      15.12771451       6.95642154       9.06902046       0.00073230      -0.00499178       0.03477329
Al      13.10000000       5.00000000      13.10000000      -0.00872977      -0.63490051      -0.24121751
Al      13.10000000       7.02500000      15.12500000       0.00448375       0.33304885       0.64479163
Al      15.12500000       5.00000000      15.12500000      -0.00268876      -0.20161214       0.17395106
Al      15.12500000       7.02500000      13.10000000      -0.00300956       0.00429523      -0.52655249
Al      13.10000000       9.05000000       5.00000000       0.00399986      -0.03950860      -0.70970311
Al      13.10000000      11.07500000       7.02500000      -0.00246373       0.06493310       0.39562628
Al      15.12500000       9.05000000       7.02500000      -0.00210966      -0.11767409       0.39259605
Al      15.12500000      11.07500000       5.00000000      -0.00239833      -0.00576800      -0.71065827
Al      13.09976056       9.02189443       9.04776360       0.00213687       0.00554167       0.03782680
Al      13.10033128      11.04634026      11.07900053       0.00236785       0.01836040      -0.02609165
Al      15.12770134       9.02042200      11.07419437       0.00068064       0.00568308      -0.02768514
Al      15.11273966      11.08316303       9.05808635      -0.00195381       0.01764767       0.03854781
Al      13.10000000       9.05000000      13.10000000       0.00479222      -0.18297075      -0.33312916
Al      13.10000000      11.07500000      15.12500000       0.00429146      -0.00288060       0.70066637
Al      15.12500000       9.05000000      15.12500000      -0.00285314      -0.03803859       0.70508529
Al      15.12500000      11.07500000      13.10000000      -0.01491880       0.01461224      -0.34129479
Al      13.10000000      13.10000000       5.00000000       0.00390505       0.00504668      -0.71148576
Al      13.10000000      15.12500000       7.02500000      -0.00539531       0.00539531       0.05576980
Al      15.12500000      13.10000000       7.02500000      -0.04381845       0.04381845       0.33325348
Al      15.12500000      15.12500000       5.00000000      -0.00504668      -0.00390505      -0.71148576
Al      13.09794525      13.14168298       9.08343640       0.00436732       0.01708710       0.04200359
Al      15.05051988      13.17448012      11.09391708      -0.00044016       0.00044016      -0.01685398
Al      15.08331702      15.12705475       9.08343640      -0.01708710      -0.00436732       0.04200359
Al      13.10000000      13.10000000      13.10000000      -0.01124826       0.39832255      -0.44735353
Al      13.10000000      15.12500000      15.12500000       0.00400813      -0.00400813       0.85887502
Al      15.12500000      13.10000000      15.12500000       0.00463399      -0.00463399       0.71983790
Al      15.12500000      15.12500000      13.10000000      -0.39832255       0.01124826      -0.44735353
Al      13.10000000      17.15000000       5.00000000       0.00313281       0.00351493      -0.71258724
Al      13.10000000      19.17500000       7.02500000       0.00094109       0.05233393       0.45722109
Al      15.12500000      17.15000000       7.02500000      -0.04450336      -0.01130110       0.34443306
Al      15.12500000      19.17500000       5.00000000      -0.00316732       0.03906544      -0.71316459
Al      13.09919025      17.11791991       9.08239386       0.00094987      -0.02465927       0.04388392
Al      13.09964269      19.22057954      11.07753050      -0.00031513      -0.00841733      -0.02612270
Al      15.05070817      17.08512747      11.09325993       0.00043147      -0.00935405      -0.01875259
Al      15.11362039      19.18458260       9.05836678      -0.00285434      -0.00763900       0.03955373
Al      13.10000000      17.15000000      13.10000000      -0.00581324      -0.37391286      -0.46524863
Al      13.10000000      19.17500000      15.12500000       0.00305977       0.03577335       0.70345288
Al      15.12500000      17.15000000      15.12500000       0.00432960       0.01218352       0.72199936
Al      15.12500000      19.17500000      13.10000000      -0.02183245       0.10049222      -0.40663210
Al      13.10000000      21.20000000       5.00000000       0.00303557      -0.33073556      -0.64817381
Al      13.10000000      23.22500000       7.02500000      -0.01061023       0.64804509       0.23501127
Al      15.12500000      21.20000000       7.02500000      -0.00517070      -0.03792444       0.56171535
Al      15.12500000      23.22500000       5.00000000      -0.00343578       0.20531632      -0.17565042
Al      13.09771210      21.27044620       9.06738156       0.00216182       0.00289204       0.03586351
Al      13.09751988      23.43617263      11.09495691       0.00260525       0.00089862      -0.04130361
Al      15.12951961      21.27190891      11.05377244      -0.00380127       0.00188305      -0.02568647
Al      15.12804983      23.43833586       9.02804794      -0.00259707       0.00300799       0.04872406
Al      13.10000000      21.20000000      13.10000000       0.00259722       0.02569668      -0.50484103
Al      13.10000000      23.22500000      15.12500000       0.00269237       0.20227768       0.17444501
Al      15.12500000      21.20000000      15.12500000      -0.00415153      -0.33307272       0.64499083
Al      15.12500000      23.22500000      13.10000000       0.00827194       0.64032414      -0.23990854
Al      17.15000000       5.00000000       5.00000000       0.00689524      -0.20386612      -0.17604404
Al      17.15000000       7.02500000       7.02500000      -0.00436834       0.03058111       0.53119934
Al      19.17500000       5.00000000       7.02500000       0.03040350      -0.60572903       0.22627799
Al      19.17500000       7.02500000       5.00000000       0.04025950       0.32935099      -0.64509786
Al      17.15911771       4.79419117       9.03067687      -0.00087986      -0.00373925       0.04991987
Al      17.15453343       6.96368437      11.05651989      -0.00271294      -0.00263780      -0.02955239
Al      19.18236971       4.81472330      11.10106461       0.00030900      -0.00211827      -0.04436950
Al      19.16881021       6.99104904       9.06539393       0.00195398      -0.00563903       0.03685083
Al      17.15000000       5.00000000      13.10000000       0.00559894      -0.62945724      -0.22759757
Al      17.15000000       7.02500000      15.12500000       0.00521461       0.33310577       0.64393549
Al      19.17500000       5.00000000      15.12500000       0.03648185      -0.19698584       0.17241618
Al      19.17500000       7.02500000      13.10000000       0.05308320       0.07219088      -0.54394573
Al      17.15000000       9.05000000       5.00000000       0.00625735      -0.03934354      -0.70987208
Al      17.15000000      11.07500000       7.02500000      -0.00578367       0.00578367       0.35168559
Al      19.17500000       9.05000000       7.02500000       0.09349094      -0.09349094       0.42221925
Al      19.17500000      11.07500000       5.00000000       0.03934354      -0.00625735      -0.70987208
Al      17.14429959       9.04022399       9.05180139      -0.00312079       0.00409908       0.03967439
Al      17.12845680      11.09654320      11.07651680      -0.00803850       0.00803850      -0.02729413
Al      19.16882802       9.05617198      11.07498751      -0.00154082       0.00154082      -0.03058825
Al      19.18477601      11.08070041       9.05180139      -0.00409908       0.00312079       0.03967439
Al      17.15000000       9.05000000      13.10000000       0.00214614      -0.10880634      -0.38408875
Al      17.15000000      11.07500000      15.12500000       0.00526743      -0.00526743       0.70541333
Al      19.17500000       9.05000000      15.12500000       0.03804364      -0.03804364       0.70606062
Al      19.17500000      11.07500000      13.10000000       0.10880634      -0.00214614      -0.38408875
Al      17.15000000      13.10000000       5.00000000       0.00576800       0.00239833      -0.71065827
Al      17.15000000      15.12500000       7.02500000      -0.06493310       0.00246373       0.39562628
Al      19.17500000      13.10000000       7.02500000       0.11767409       0.00210966       0.39259605
Al      19.17500000      15.12500000       5.00000000       0.03950860      -0.00399986      -0.70970311
Al      17.14183697      13.11226034       9.05808635      -0.01764767       0.00195381       0.03854781
Al      17.17865974      15.12466872      11.07900053      -0.01836040      -0.00236785      -0.02609165
Al      19.20457800      13.09729866      11.07419437      -0.00568308      -0.00068064      -0.02768514
Al      19.20310557      15.12523944       9.04776360      -0.00554167      -0.00213687       0.03782680
Al      17.15000000      13.10000000      13.10000000      -0.01461224       0.01491880      -0.34129479
Al      17.15000000      15.12500000      15.12500000       0.00288060      -0.00429146       0.70066637
Al      19.17500000      13.10000000      15.12500000       0.03803859       0.00285314       0.70508529
Al      19.17500000      15.12500000      13.10000000       0.18297075      -0.00479222      -0.33312916
Al      17.15000000      17.15000000       5.00000000       0.00570922       0.00538022      -0.71187219
Al      17.15000000      19.17500000       7.02500000      -0.02252442       0.10287129       0.40478738
Al      19.17500000      17.15000000       7.02500000       0.10341280       0.00831985       0.39508555
Al      19.17500000      19.17500000       5.00000000       0.03905139       0.03877786      -0.71043519
Al      17.13746085      17.14183452       9.05917664      -0.01421036      -0.00996570       0.04016008
Al      17.12620377      19.16826686      11.07619285      -0.00780164      -0.00471678      -0.02877965
Al      19.19686514      17.15257682      11.07411679      -0.00808847      -0.00676941      -0.03010682
Al      19.17126386      19.17266235       9.05148962      -0.00611003      -0.00332243       0.04046681
Al      17.15000000      17.15000000      13.10000000      -0.02300330       0.00901815      -0.35580529
Al      17.15000000      19.17500000      15.12500000       0.00473397       0.03737634       0.70815991
Al      19.17500000      17.15000000      15.12500000       0.03797574       0.00404048       0.70592141
Al      19.17500000      19.17500000      13.10000000       0.07879701       0.09629912      -0.42511695
Al      17.15000000      21.20000000       5.00000000       0.00536308      -0.33067169      -0.64852367
Al      17.15000000      23.22500000       7.02500000       0.00806020       0.62238954       0.23681601
Al      19.17500000      21.20000000       7.02500000       0.04991040      -0.07184845       0.54536783
Al      19.17500000      23.22500000       5.00000000       0.03723833       0.20001371      -0.17548064
Al      17.14877140      21.25311779       9.06855007      -0.00722181       0.00269917       0.03882913
Al      17.16012061      23.43084125      11.09336921      -0.00504813       0.00283741      -0.04372658
Al      19.16298854      21.22764611      11.06031475      -0.00268748       0.00584204      -0.03002081
Al      19.18104223      23.40391073       9.02434011      -0.00189568       0.00538232       0.04909226
Al      17.15000000      21.20000000      13.10000000      -0.01320903      -0.04729079      -0.53906522
Al      17.15000000      23.22500000      15.12500000       0.00604969       0.20189745       0.17541474
Al      19.17500000      21.20000000      15.12500000       0.03919309      -0.33071516       0.64452060
Al      19.17500000      23.22500000      13.10000000       0.02873000       0.59778739      -0.22913767
Al      21.20000000       5.00000000       5.00000000      -0.45300000      -0.09671691      -0.08425299
Al      21.20000000       7.02500000       7.02500000      -0.14564710       0.14564710       0.66163311
Al      23.22500000       5.00000000       7.02500000       0.05194294      -0.05194294       0.52092324
Al      23.22500000       7.02500000       5.00000000       0.09671691       0.45300000      -0.08425299
Al      21.17801839       4.87816666       9.04292382       0.00231911      -0.00351590       0.04507208
Al      21.19643582       7.02856418      11.04637220       0.00544514      -0.00544514      -0.03056015
Al      23.24753027       4.97746973      11.07892853       0.00813886      -0.00813886      -0.05636829
Al      23.34683334       7.04698161       9.04292382       0.00351590      -0.00231911       0.04507208
Al      21.20000000       5.00000000      13.10000000      -0.24431116      -0.49720140      -0.36742316
Al      21.20000000       7.02500000      15.12500000      -0.32570553       0.32570553       0.58631106
Al      23.22500000       5.00000000      15.12500000      -0.32782500       0.32782500      -0.33585524
Al      23.22500000       7.02500000      13.10000000       0.49720140       0.24431116      -0.36742316
Al      21.20000000       9.05000000       5.00000000      -0.32935099      -0.04025950      -0.64509786
Al      21.20000000      11.07500000       7.02500000      -0.03058111       0.00436834       0.53119934
Al      23.22500000       9.05000000       7.02500000       0.60572903      -0.03040350       0.22627799
Al      23.22500000      11.07500000       5.00000000       0.20386612      -0.00689524      -0.17604404
Al      21.23395096       9.05618979       9.06539393       0.00563903      -0.00195398       0.03685083
Al      21.26131563      11.07046657      11.05651989       0.00263780       0.00271294      -0.02955239
Al      23.41027670       9.04263029      11.10106461       0.00211827      -0.00030900      -0.04436950
Al      23.43080883      11.06588229       9.03067687       0.00373925       0.00087986       0.04991987
Al      21.20000000       9.05000000      13.10000000      -0.07219088      -0.05308320      -0.54394573
Al      21.20000000      11.07500000      15.12500000      -0.33310577      -0.00521461       0.64393549
Al      23.22500000       9.05000000      15.12500000       0.19698584      -0.03648185       0.17241618
Al      23.22500000      11.07500000      13.10000000       0.62945724      -0.00559894      -0.22759757
Al      21.20000000      13.10000000       5.00000000      -0.33126671       0.00298331      -0.64708804
Al      21.20000000      15.12500000       7.02500000       0.00223593      -0.00418140       0.52530289
Al      23.22500000      13.10000000       7.02500000       0.64142716      -0.00920570       0.23983065
Al      23.22500000      15.12500000       5.00000000       0.20476778      -0.00350604      -0.17564216
Al      21.26857846      13.09728549       9.06902046       0.00499178      -0.00073230       0.03477329
Al      21.26735411      15.12711586      11.05486381       0.00367263      -0.00406543      -0.02616746
Al      23.43564606      13.09812183      11.09571004       0.00196929       0.00001149      -0.04199979
Al      23.43584482      15.12744351       9.02893082       0.00385452      -0.00413765       0.04816207
Al      21.20000000      13.10000000      13.10000000      -0.00429523       0.00300956      -0.52655249
Al      21.20000000      15.12500000      15.12500000      -0.33304885      -0.00448375       0.64479163
Al      23.22500000      13.10000000      15.12500000       0.20161214       0.00268876       0.17395106
Al      23.22500000      15.12500000      13.10000000       0.63490051       0.00872977      -0.24121751
Al      21.20000000      17.15000000       5.00000000      -0.33073523       0.00461986      -0.64718256
Al      21.20000000      19.17500000       7.02500000      -0.06798763       0.05615813       0.54344256
Al      23.22500000      17.15000000       7.02500000       0.63567165       0.00561556       0.22467440
Al      23.22500000      19.17500000       5.00000000       0.20064123       0.03700179      -0.17432580
Al      21.26171311      17.15508039       9.06721883       0.00350868      -0.00627192       0.03792574
Al      21.23882346      19.17241717      11.05956194       0.00472308      -0.00079888      -0.03042911
Al      23.42973746      17.15919529      11.09394990       0.00408375      -0.00459290      -0.04390858
Al      23.41177172      19.18259968       9.02319481       0.00573661      -0.00087133       0.04910289
Al      21.20000000      17.15000000      13.10000000      -0.01623765      -0.00607259      -0.51446388