299
Lattice="28.224999999999998 0.0 0.0 0.0 28.224999999999998 0.0 0.0 0.0 20.125" Properties=species:S:1:pos:R:3:forces:R:3 energy=-16469.300795798128 pbc="T T T"
Al       5.00000000       5.00000000       5.00000000       0.32650205       0.32625502       0.33327846
Al       5.00000000       7.02500000       7.02500000      -0.50055980       0.24222233       0.37825432
Al       7.02500000       5.00000000       7.02500000       0.23748821      -0.49984243       0.37577794
Al       7.02500000       7.02500000       5.00000000       0.32456757       0.32442976      -0.59097384
Al       4.97857261       4.97944627       9.05063085      -0.01377018      -0.01406620       0.04342269
Al       4.88093960       7.05009564      11.08339890      -0.00152025      -0.00632669      -0.03989610
Al       7.04723808       4.87375881      11.08381774      -0.00545191      -0.00409552      -0.04008737
Al       7.02761421       7.02719522       9.08096683      -0.00419080      -0.00505078       0.02093054
Al       5.00000000       5.00000000      13.10000000      -0.05363077      -0.04840244      -0.52363839
Al       5.00000000       7.02500000      15.12500000      -0.09596903       0.45418131       0.08456169
Al       7.02500000       5.00000000      15.12500000       0.45433431      -0.09667977       0.08351921
Al       7.02500000       7.02500000      13.10000000       0.14678999       0.15046444      -0.66574455
Al       5.00000000       9.05000000       5.00000000      -0.19968675      -0.03680454      -0.17567734
Al       5.00000000      11.07500000       7.02500000      -0.62179029      -0.00773350       0.24088487
Al       7.02500000       9.05000000       7.02500000       0.07191711      -0.05008832       0.55430166
Al       7.02500000      11.07500000       5.00000000       0.33263428      -0.00507593      -0.64997800
Al       4.81943231       9.04432411       9.02464596      -0.00054001      -0.00006872       0.04251982
Al       4.79400537      11.06562585      11.09322164      -0.00334034       0.00116871      -0.03964506
Al       6.99664679       9.06246034      11.05942190      -0.00431938       0.00164587      -0.01837546
Al       6.97150253      11.07651744       9.06957572      -0.00132243       0.00409337       0.02531554
Al       5.00000000       9.05000000      13.10000000      -0.59863073      -0.02192023      -0.22817785
Al       5.00000000      11.07500000      15.12500000      -0.20212744      -0.00627826       0.17624188
Al       7.02500000       9.05000000      15.12500000       0.33147018      -0.03881666       0.64659948
Al       7.02500000      11.07500000      13.10000000       0.04756642       0.01225215      -0.54344226
Al       5.00000000      13.10000000       5.00000000      -0.20439376       0.00317703      -0.17626146
Al       5.00000000      15.12500000       7.02500000      -0.64738098       0.01123342       0.23644427
Al       7.02500000      13.10000000       7.02500000       0.04147581       0.00468649       0.56510664
Al       7.02500000      15.12500000       5.00000000       0.33268296      -0.00381488      -0.65013844
Al       4.78794925      13.09765489       9.02809999      -0.00593722      -0.00101090       0.04352099
Al       4.79048157      15.12720193      11.09524926      -0.00654902      -0.00198152      -0.03914653
Al       6.95291937      13.09562784      11.05364418       0.00012724       0.00089604      -0.02049289
Al       6.95452883      15.12757643       9.06811283      -0.00111460      -0.00407009       0.02392926
Al       5.00000000      13.10000000      13.10000000      -0.64172832      -0.00954255      -0.24046981
Al       5.00000000      15.12500000      15.12500000      -0.20296910      -0.00342487       0.17585082
Al       7.02500000      13.10000000      15.12500000       0.33386432       0.00331235       0.64759046
Al       7.02500000      15.12500000      13.10000000      -0.02455252      -0.00287897      -0.50589230
Al       5.00000000      17.15000000       5.00000000      -0.20414512       0.00594006      -0.17702230
Al       5.00000000      19.17500000       7.02500000      -0.60102311       0.02506808       0.22552962
Al       7.02500000      17.15000000       7.02500000       0.05157397      -0.00430455       0.55254043
Al       7.02500000      19.17500000       5.00000000       0.33038057       0.03899493      -0.64857123
Al       4.79322489      17.16014280       9.03042166      -0.00651948      -0.00311716       0.04287551
Al       4.81246176      19.18387074      11.10068323      -0.00323813      -0.00222566      -0.03804851
Al       6.95955995      17.15737726      11.05524884       0.00034469      -0.00929155      -0.02015022
Al       6.99446588      19.16674850       9.06693269      -0.00364108      -0.00370615       0.02266715
Al       5.00000000      17.15000000      13.10000000      -0.63647681       0.00758875      -0.22825860
Al       5.00000000      19.17500000      15.12500000      -0.19931878       0.03645239       0.17412334
Al       7.02500000      17.15000000      15.12500000       0.33329588       0.00421014       0.64738686
Al       7.02500000      19.17500000      13.10000000       0.08370763       0.05079984      -0.55838936
Al       5.00000000      21.20000000       5.00000000      -0.09782386      -0.45343352      -0.08534789
Al       5.00000000      23.22500000       7.02500000      -0.05115648       0.05115648       0.52730178
Al       7.02500000      21.20000000       7.02500000       0.15310613      -0.15310613       0.66185655
Al       7.02500000      23.22500000       5.00000000       0.45343352       0.09782386      -0.08534789
Al       4.88099143      21.17515824       9.04144543      -0.00602016       0.00620591       0.04117939
Al       4.98282369      23.24217631      11.07342087      -0.01527721       0.01527721      -0.04157902
Al       7.03399271      21.19100729      11.04558681      -0.00482609       0.00482609      -0.01607798
Al       7.04984176      23.34400857       9.04144543      -0.00620591       0.00602016       0.04117939
Al       5.00000000      21.20000000      13.10000000      -0.49272801      -0.24096399      -0.37437205
Al       5.00000000      23.22500000      15.12500000       0.32743397      -0.32743397      -0.33291827
Al       7.02500000      21.20000000      15.12500000       0.32497677      -0.32497677       0.59041321
Al       7.02500000      23.22500000      13.10000000       0.24096399       0.49272801      -0.37437205
Al       9.05000000       5.00000000       5.00000000      -0.03680156      -0.20031354      -0.17470404
Al       9.05000000       7.02500000       7.02500000      -0.05822060       0.06905418       0.55312225
Al      11.07500000       5.00000000       7.02500000      -0.00676791      -0.63547557       0.23114339
Al      11.07500000       7.02500000       5.00000000      -0.00482947       0.33260112      -0.64877006
Al       9.04204544       4.81279948       9.02392839       0.00058283      -0.00276209       0.04159155
Al       9.05239354       6.98594599      11.05867958       0.00136404      -0.00330461      -0.01872046
Al      11.06646235       4.79613108      11.09369998       0.00019740      -0.00670267      -0.03969707
Al      11.06995934       6.96306117       9.06828115       0.00394442      -0.00169293       0.02349335
Al       9.05000000       5.00000000      13.10000000      -0.02393358      -0.61106064      -0.21878337
Al       9.05000000       7.02500000      15.12500000      -0.03844150       0.33135160       0.64568280
Al      11.07500000       5.00000000      15.12500000      -0.00627399      -0.20197142       0.17607641
Al      11.07500000       7.02500000      13.10000000       0.00400277       0.01653490      -0.51813844
Al       9.05000000       9.05000000       5.00000000      -0.03768893      -0.03766645      -0.71171679
Al       9.05000000      11.07500000       7.02500000      -0.10084065       0.02332611       0.41248104
Al      11.07500000       9.05000000       7.02500000      -0.00839775      -0.10104965       0.40284649
Al      11.07500000      11.07500000       5.00000000      -0.00533370      -0.00502257      -0.71311476
Al       9.05217990       9.05380659       9.05289373       0.00395178       0.00676171       0.02326718
Al       9.05691995      11.09929678      11.07562485       0.00475332       0.00521372      -0.01913665
Al      11.07246155       9.02781333      11.07354337       0.00522579       0.01050670      -0.02053379
Al      11.08346828      11.08782604       9.06071178       0.00718348       0.01246236       0.02247200
Al       9.05000000       9.05000000      13.10000000      -0.09743918      -0.07851349      -0.43205760
Al       9.05000000      11.07500000      15.12500000      -0.03695916      -0.00492022       0.71040371
Al      11.07500000       9.05000000      15.12500000      -0.00472905      -0.03737842       0.70824371
Al      11.07500000      11.07500000      13.10000000      -0.00974414       0.02440964      -0.36185831
Al       9.05000000      13.10000000       5.00000000      -0.03749032       0.00290951      -0.71462603
Al       9.05000000      15.12500000       7.02500000      -0.05152222      -0.00150985       0.46016284
Al      11.07500000      13.10000000       7.02500000       0.00902824       0.04291608       0.34790883
Al      11.07500000      15.12500000       5.00000000      -0.00267735      -0.00355834      -0.71376557
Al       9.04012165      13.11177415       9.05976028       0.01127630      -0.00093284       0.02265110
Al       9.00398726      15.12565949      11.07716524       0.01272611      -0.00239950      -0.01867622
Al      11.14116997      13.17570413      11.09261323       0.00201187      -0.00702323      -0.01008914
Al      11.10668665      15.12600342       9.08256300       0.02814894      -0.00231948       0.03232493
Al       9.05000000      13.10000000      13.10000000      -0.09749515       0.02160738      -0.41166243
Al       9.05000000      15.12500000      15.12500000      -0.03472610      -0.00391765       0.70639872
Al      11.07500000      13.10000000      15.12500000      -0.01224121      -0.00450804       0.72461611
Al      11.07500000      15.12500000      13.10000000       0.37267412       0.00640461      -0.46510160
Al       9.05000000      17.15000000       5.00000000      -0.03744839       0.00497221      -0.71460353
Al       9.05000000      19.17500000       7.02500000      -0.07271851       0.07271851       0.44832189
Al      11.07500000      17.15000000       7.02500000       0.01672228      -0.01672228       0.35629447
Al      11.07500000      19.17500000       5.00000000      -0.00497221       0.03744839      -0.71460353
Al       9.04763455      17.13969313       9.05994004       0.01346232      -0.01018578       0.02434579
Al       9.07052766      19.15447234      11.07573549       0.00725197      -0.00725197      -0.01729703
Al      11.14558166      17.07941834      11.09152068       0.00181021      -0.00181021      -0.00939913
Al      11.08530687      19.17736545       9.05994004       0.01018578      -0.01346232       0.02434579
Al       9.05000000      17.15000000      13.10000000      -0.08473902      -0.00892092      -0.41431783
Al       9.05000000      19.17500000      15.12500000      -0.03687870       0.03687870       0.71076782
Al      11.07500000      17.15000000      15.12500000      -0.01214527       0.01214527       0.72554831
Al      11.07500000      19.17500000      13.10000000       0.00892092       0.08473902      -0.41431783
Al       9.05000000      21.20000000       5.00000000      -0.03899493      -0.33038057      -0.64857123
Al       9.05000000      23.22500000       7.02500000      -0.02506808       0.60102311       0.22552962
Al      11.07500000      21.20000000       7.02500000       0.00430455      -0.05157397       0.55254043
Al      11.07500000      23.22500000       5.00000000      -0.00594006       0.20414512      -0.17702230
Al       9.05825150      21.23053412       9.06693269       0.00370615       0.00364108       0.02266715
Al       9.04112926      23.41253824      11.10068323       0.00222566       0.00323813      -0.03804851
Al      11.06762274      21.26544005      11.05524884       0.00929155      -0.00034469      -0.02015022
Al      11.06485720      23.43177511       9.03042166       0.00311716       0.00651948       0.04287551
Al       9.05000000      21.20000000      13.10000000      -0.05079984      -0.08370763      -0.55838936
Al       9.05000000      23.22500000      15.12500000      -0.03645239       0.19931878       0.17412334
Al      11.07500000      21.20000000      15.12500000      -0.00421014      -0.33329588       0.64738686
Al      11.07500000      23.22500000      13.10000000      -0.00758875       0.63647681      -0.22825860
Al      13.10000000       5.00000000       5.00000000       0.00274083      -0.20410047      -0.17659207
Al      13.10000000       7.02500000       7.02500000       0.00311380       0.00159227       0.52884564
Al      15.12500000       5.00000000       7.02500000       0.00986403      -0.64125770       0.24218896
Al      15.12500000       7.02500000       5.00000000      -0.00429013       0.33300085      -0.64953412
Al      13.09838672       4.79115288       9.02926575      -0.00034007      -0.00867149       0.04206270
Al      13.09821838       6.95777705      11.05481201      -0.00030938      -0.00228067      -0.02072423
Al      15.12676180       4.79141708      11.09615216      -0.00044280      -0.00941519      -0.04028784
Al      15.12821985       6.95649165       9.06984390      -0.00178390      -0.00301999       0.02179345
Al      13.10000000       5.00000000      13.10000000      -0.01082951      -0.63656163      -0.24217964
Al      13.10000000       7.02500000      15.12500000       0.00309306       0.33366215       0.64761512
Al      15.12500000       5.00000000      15.12500000      -0.00383073      -0.20265063       0.17568345
Al      15.12500000       7.02500000      13.10000000      -0.00354411       0.00545028      -0.52627883
Al      13.10000000       9.05000000       5.00000000       0.00307076      -0.03782046      -0.71150198
Al      13.10000000      11.07500000       7.02500000      -0.00350261       0.06273674       0.40010034
Al      15.12500000       9.05000000       7.02500000      -0.00315307      -0.11470875       0.39790964
Al      15.12500000      11.07500000       5.00000000      -0.00349437      -0.00464568      -0.71273569
Al      13.10006607       9.02147204       9.04918551      -0.00115754       0.00905412       0.01975446
Al      13.10072084      11.04631819      11.07883944      -0.00174806       0.01745992      -0.02003679
Al      15.12816530       9.01981625      11.07384155      -0.00292242       0.00994728      -0.01930501
Al      15.11271403      11.08325956       9.05953929      -0.00261690       0.01634637       0.02048222
Al      13.10000000       9.05000000      13.10000000       0.00328712      -0.18199384      -0.33592183
Al      13.10000000      11.07500000      15.12500000       0.00319232      -0.00252482       0.70363451
Al      15.12500000       9.05000000      15.12500000      -0.00430350      -0.03709185       0.70858179
Al      15.12500000      11.07500000      13.10000000      -0.01620080       0.01601320      -0.34448906
Al      13.10000000      13.10000000       5.00000000       0.00338730       0.00556308      -0.71308897
Al      13.10000000      15.12500000       7.02500000      -0.00629202       0.00629202       0.05611655
Al      15.12500000      13.10000000       7.02500000      -0.04238148       0.04238148       0.33467064
Al      15.12500000      15.12500000       5.00000000      -0.00556308      -0.00338730      -0.71308897
Al      13.09808182      13.14149592       9.08350684       0.00145948       0.02009461       0.03067025
Al      15.04925330      13.17574670      11.09346648       0.00433492      -0.00433492      -0.00919281
Al      15.08350408      15.12691818       9.08350684      -0.02009461      -0.00145948       0.03067025
Al      13.10000000      13.10000000      13.10000000      -0.01294619       0.39747324      -0.44477430
Al      13.10000000      15.12500000      15.12500000       0.00388323      -0.00388323       0.86159856
Al      15.12500000      13.10000000      15.12500000       0.00384773      -0.00384773       0.72331074
Al      15.12500000      15.12500000      13.10000000      -0.39747324       0.01294619      -0.44477430
Al      13.10000000      17.15000000       5.00000000       0.00355834       0.00267735      -0.71376557
Al      13.10000000      19.17500000       7.02500000       0.00150985       0.05152222       0.46016284
Al      15.12500000      17.15000000       7.02500000      -0.04291608      -0.00902824       0.34790883
Al      15.12500000      19.17500000       5.00000000      -0.00290951       0.03749032      -0.71462603
Al      13.09899658      17.11831335       9.08256300       0.00231948      -0.02814894       0.03232493
Al      13.09934051      19.22101274      11.07716524       0.00239950      -0.01272611      -0.01867622
Al      15.04929587      17.08383003      11.09261323       0.00702323      -0.00201187      -0.01008914
Al      15.11322585      19.18487835       9.05976028       0.00093284      -0.01127630       0.02265110
Al      13.10000000      17.15000000      13.10000000      -0.00640461      -0.37267412      -0.46510160
Al      13.10000000      19.17500000      15.12500000       0.00391765       0.03472610       0.70639872
Al      15.12500000      17.15000000      15.12500000       0.00450804       0.01224121       0.72461611
Al      15.12500000      19.17500000      13.10000000      -0.02160738       0.09749515      -0.41166243
Al      13.10000000      21.20000000       5.00000000       0.00381488      -0.33268296      -0.65013844
Al      13.10000000      23.22500000       7.02500000      -0.01123342       0.64738098       0.23644427
Al      15.12500000      21.20000000       7.02500000      -0.00468649      -0.04147581       0.56510664
Al      15.12500000      23.22500000       5.00000000      -0.00317703       0.20439376      -0.17626146
Al      13.09742357      21.27047117       9.06811283       0.00407009       0.00111460       0.02392926
Al      13.09779807      23.43451843      11.09524926       0.00198152       0.00654902      -0.03914653
Al      15.12937216      21.27208063      11.05364418      -0.00089604      -0.00012724      -0.02049289
Al      15.12734511      23.43705075       9.02809999       0.00101090       0.00593722       0.04352099
Al      13.10000000      21.20000000      13.10000000       0.00287897       0.02455252      -0.50589230
Al      13.10000000      23.22500000      15.12500000       0.00342487       0.20296910       0.17585082
Al      15.12500000      21.20000000      15.12500000      -0.00331235      -0.33386432       0.64759046
Al      15.12500000      23.22500000      13.10000000       0.00954255       0.64172832      -0.24046981
Al      17.15000000       5.00000000       5.00000000       0.00574988      -0.20402886      -0.17764599
Al      17.15000000       7.02500000       7.02500000      -0.00470788       0.03244535       0.53509592
Al      19.17500000       5.00000000       7.02500000       0.02386193      -0.60686178       0.22615729
Al      19.17500000       7.02500000       5.00000000       0.03875429       0.33050009      -0.64844465
Al      17.15896052       4.79481833       9.03151002      -0.00054084      -0.00719049       0.04129339
Al      17.15512266       6.96339998      11.05625497      -0.00535032      -0.00264589      -0.02162813
Al      19.18281674       4.81397297      11.10110018      -0.00061730      -0.00354847      -0.04031588
Al      19.16896799       6.99069307       9.06675619      -0.00044702      -0.00488927       0.01914881
Al      17.15000000       5.00000000      13.10000000       0.00615550      -0.63294766      -0.22966622
Al      17.15000000       7.02500000      15.12500000       0.00386243       0.33341391       0.64777760
Al      19.17500000       5.00000000      15.12500000       0.03598038      -0.19924251       0.17452337
Al      19.17500000       7.02500000      13.10000000       0.05481504       0.07035691      -0.54769471
Al      17.15000000       9.05000000       5.00000000       0.00452314      -0.03745935      -0.71248470
Al      17.15000000      11.07500000       7.02500000      -0.00718542       0.00718542       0.35775313
Al      19.17500000       9.05000000       7.02500000       0.09198946      -0.09198946       0.42796379
Al      19.17500000      11.07500000       5.00000000       0.03745935      -0.00452314      -0.71248470
Al      17.14453560       9.04006816       9.05324663      -0.00581321       0.00710358       0.02102732
Al      17.12802266      11.09697734      11.07623378      -0.00724113       0.00724113      -0.01892561
Al      19.16894446       9.05605554      11.07450324      -0.00340419       0.00340419      -0.02040596
Al      19.18493184      11.08046440       9.05324663      -0.00710358       0.00581321       0.02102732
Al      17.15000000       9.05000000      13.10000000       0.00121398      -0.10730426      -0.38641351
Al      17.15000000      11.07500000      15.12500000       0.00415277      -0.00415277       0.70905274
Al      19.17500000       9.05000000      15.12500000       0.03690780      -0.03690780       0.71031181
Al      19.17500000      11.07500000      13.10000000       0.10730426      -0.00121398      -0.38641351
Al      17.15000000      13.10000000       5.00000000       0.00464568       0.00349437      -0.71273569
Al      17.15000000      15.12500000       7.02500000      -0.06273674       0.00350261       0.40010034
Al      19.17500000      13.10000000       7.02500000       0.11470875       0.00315307       0.39790964
Al      19.17500000      15.12500000       5.00000000       0.03782046      -0.00307076      -0.71150198
Al      17.14174044      13.11228597       9.05953929      -0.01634637       0.00261690       0.02048222
Al      17.17868181      15.12427916      11.07883944      -0.01745992       0.00174806      -0.02003679
Al      19.20518375      13.09683470      11.07384155      -0.00994728       0.00292242      -0.01930501
Al      19.20352796      15.12493393       9.04918551      -0.00905412       0.00115754       0.01975446
Al      17.15000000      13.10000000      13.10000000      -0.01601320       0.01620080      -0.34448906
Al      17.15000000      15.12500000      15.12500000       0.00252482      -0.00319232       0.70363451
Al      19.17500000      13.10000000      15.12500000       0.03709185       0.00430350       0.70858179
Al      19.17500000      15.12500000      13.10000000       0.18199384      -0.00328712      -0.33592183
Al      17.15000000      17.15000000       5.00000000       0.00502257       0.00533370      -0.71311476
Al      17.15000000      19.17500000       7.02500000      -0.02332611       0.10084065       0.41248104
Al      19.17500000      17.15000000       7.02500000       0.10104965       0.00839775       0.40284649
Al      19.17500000      19.17500000       5.00000000       0.03766645       0.03768893      -0.71171679
Al      17.13717396      17.14153172       9.06071178      -0.01246236      -0.00718348       0.02247200
Al      17.12570322      19.16808005      11.07562485      -0.00521372      -0.00475332      -0.01913665
Al      19.19718667      17.15253845      11.07354337      -0.01050670      -0.00522579      -0.02053379
Al      19.17119341      19.17282010       9.05289373      -0.00676171      -0.00395178       0.02326718
Al      17.15000000      17.15000000      13.10000000      -0.02440964       0.00974414      -0.36185831
Al      17.15000000      19.17500000      15.12500000       0.00492022       0.03695916       0.71040371
Al      19.17500000      17.15000000      15.12500000       0.03737842       0.00472905       0.70824371
Al      19.17500000      19.17500000      13.10000000       0.07851349       0.09743918      -0.43205760
Al      17.15000000      21.20000000       5.00000000       0.00507593      -0.33263428      -0.64997800
Al      17.15000000      23.22500000       7.02500000       0.00773350       0.62179029       0.24088487
Al      19.17500000      21.20000000       7.02500000       0.05008832      -0.07191711       0.55430166
Al      19.17500000      23.22500000       5.00000000       0.03680454       0.19968675      -0.17567734
Al      17.14848256      21.25349747       9.06957572      -0.00409337       0.00132243       0.02531554
Al      17.15937415      23.43099463      11.09322164      -0.00116871       0.00334034      -0.03964506
Al      19.16253966      21.22835321      11.05942190      -0.00164587       0.00431938      -0.01837546
Al      19.18067589      23.40556769       9.02464596       0.00006872       0.00054001       0.04251982
Al      17.15000000      21.20000000      13.10000000      -0.01225215      -0.04756642      -0.54344226
Al      17.15000000      23.22500000      15.12500000       0.00627826       0.20212744       0.17624188
Al      19.17500000      21.20000000      15.12500000       0.03881666      -0.33147018       0.64659948
Al      19.17500000      23.22500000      13.10000000       0.02192023       0.59863073      -0.22817785
Al      21.20000000       5.00000000       5.00000000      -0.45351322      -0.09817942      -0.08558617
Al      21.20000000       7.02500000       7.02500000      -0.14705467       0.14705467       0.66523371
Al      23.22500000       5.00000000       7.02500000       0.05281137      -0.05281137       0.52369627
Al      23.22500000       7.02500000       5.00000000       0.09817942       0.45351322      -0.08558617
Al      21.17676092       4.87727619       9.04168668       0.00591912      -0.00397401       0.04133331
Al      21.19665301       7.02834699      11.04507009       0.00501722      -0.00501722      -0.01912357
Al      23.24557107       4.97942893      11.07492874       0.01512105      -0.01512105      -0.04283507
Al      23.34772381       7.04823908       9.04168668       0.00397401      -0.00591912       0.04133331
Al      21.20000000       5.00000000      13.10000000      -0.24014752      -0.49928439      -0.37209809
Al      21.20000000       7.02500000      15.12500000      -0.32537623       0.32537623       0.59043912
Al      23.22500000       5.00000000      15.12500000      -0.32672994       0.32672994      -0.33329349
Al      23.22500000       7.02500000      13.10000000       0.49928439       0.24014752      -0.37209809
Al      21.20000000       9.05000000       5.00000000      -0.33050009      -0.03875429      -0.64844465
Al      21.20000000      11.07500000       7.02500000      -0.03244535       0.00470788       0.53509592
Al      23.22500000       9.05000000       7.02500000       0.60686178      -0.02386193       0.22615729
Al      23.22500000      11.07500000       5.00000000       0.20402886      -0.00574988      -0.17764599
Al      21.23430693       9.05603201       9.06675619       0.00488927       0.00044702       0.01914881
Al      21.26160002      11.06987734      11.05625497       0.00264589       0.00535032      -0.02162813
Al      23.41102703       9.04218326      11.10110018       0.00354847       0.00061730      -0.04031588
Al      23.43018167      11.06603948       9.03151002       0.00719049       0.00054084       0.04129339
Al      21.20000000       9.05000000      13.10000000      -0.07035691      -0.05481504      -0.54769471
Al      21.20000000      11.07500000      15.12500000      -0.33341391      -0.00386243       0.64777760
Al      23.22500000       9.05000000      15.12500000       0.19924251      -0.03598038       0.17452337
Al      23.22500000      11.07500000      13.10000000       0.63294766      -0.00615550      -0.22966622
Al      21.20000000      13.10000000       5.00000000      -0.33300085       0.00429013      -0.64953412
Al      21.20000000      15.12500000       7.02500000      -0.00159227      -0.00311380       0.52884564
Al      23.22500000      13.10000000       7.02500000       0.64125770      -0.00986403       0.24218896
Al      23.22500000      15.12500000       5.00000000       0.20410047      -0.00274083      -0.17659207
Al      21.26850835      13.09678015       9.06984390       0.00301999       0.00178390       0.02179345
Al      21.26722295      15.12678162      11.05481201       0.00228067       0.00030938      -0.02072423
Al      23.43358292      13.09823820      11.09615216       0.00941519       0.00044280      -0.04028784
Al      23.43384712      15.12661328       9.02926575       0.00867149       0.00034007       0.04206270
Al      21.20000000      13.10000000      13.10000000      -0.00545028       0.00354411      -0.52627883
Al      21.20000000      15.12500000      15.12500000      -0.33366215      -0.00309306       0.64761512
Al      23.22500000      13.10000000      15.12500000       0.20265063       0.00383073       0.17568345
Al      23.22500000      15.12500000      13.10000000       0.63656163       0.01082951      -0.24217964
Al      21.20000000      17.15000000       5.00000000      -0.33260112       0.00482947      -0.64877006
Al      21.20000000      19.17500000       7.02500000      -0.06905418       0.05822060       0.55312225
Al      23.22500000      17.15000000       7.02500000       0.63547557       0.00676791       0.23114339
Al      23.22500000      19.17500000       5.00000000       0.20031354       0.03680156      -0.17470404
Al      21.26193883      17.15504066       9.06828115       0.00169293      -0.00394442       0.02349335
Al      21.23905401      19.17260646      11.05867958       0.00330461      -0.00136404      -0.01872046
Al      23.42886892      17.15853765      11.09369998       0.00670267      -0.00019740      -0.03969707
Al      23.41220052      19.18295456       9.02392839       0.00276209      -0.00058283       0.04159155
Al      21.20000000      17.15000000      13.10000000      -0.01653490      -0.00400277      -0.51813844