299
Lattice="28.224999999999998 0.0 0.0 0.0 28.224999999999998 0.0 0.0 0.0 20.125" Properties=species:S:1:pos:R:3:forces:R:3 energy=-16469.304150603526 pbc="T T T"
Al       5.00000000       5.00000000       5.00000000       0.32883180       0.32920240       0.33095123
Al       5.00000000       7.02500000       7.02500000      -0.49665109       0.23718038       0.38351174
Al       7.02500000       5.00000000       7.02500000       0.23053107      -0.49399641       0.38172825
Al       7.02500000       7.02500000       5.00000000       0.32006154       0.32075619      -0.58231722
Al       4.97828527       4.97934861       9.05710546      -0.01014519      -0.00909466       0.02725538
Al       4.87835107       7.05233084      11.08313582       0.00685364      -0.00826178      -0.03148958
Al       7.04876866       4.87217164      11.08336085      -0.00759414       0.00341432      -0.03091415
Al       7.02759905       7.02813976       9.08209074      -0.00750683      -0.00961762       0.01272508
Al       5.00000000       5.00000000      13.10000000      -0.05184639      -0.04472763      -0.52738723
Al       5.00000000       7.02500000      15.12500000      -0.09148219       0.45519805       0.08015355
Al       7.02500000       5.00000000      15.12500000       0.45391779      -0.09162277       0.07963658
Al       7.02500000       7.02500000      13.10000000       0.14800166       0.15577556      -0.66692113
Al       5.00000000       9.05000000       5.00000000      -0.19985023      -0.04051011      -0.17032214
Al       5.00000000      11.07500000       7.02500000      -0.61887550      -0.00638454       0.24011059
Al       7.02500000       9.05000000       7.02500000       0.06995270      -0.05325615       0.55671462
Al       7.02500000      11.07500000       5.00000000       0.32015901      -0.01157944      -0.63878424
Al       4.81780915       9.04590013       9.02476766       0.00381092      -0.00308161       0.04029056
Al       4.79491168      11.06639525      11.09166992      -0.00355957       0.00056645      -0.02892267
Al       6.99715014       9.06384882      11.05794560      -0.00758977      -0.00000002       0.00027131
Al       6.97309651      11.07760464       9.06961251      -0.00968955      -0.00025850       0.02208112
Al       5.00000000       9.05000000      13.10000000      -0.59043744      -0.01449944      -0.22297355
Al       5.00000000      11.07500000      15.12500000      -0.20086141      -0.00784021       0.16910021
Al       7.02500000       9.05000000      15.12500000       0.32535559      -0.04351130       0.63435769
Al       7.02500000      11.07500000      13.10000000       0.04752404       0.01097817      -0.54429725
Al       5.00000000      13.10000000       5.00000000      -0.20883332       0.00146851      -0.17031305
Al       5.00000000      15.12500000       7.02500000      -0.64536214       0.00989568       0.23944520
Al       7.02500000      13.10000000       7.02500000       0.03858230       0.00293581       0.56802165
Al       7.02500000      15.12500000       5.00000000       0.31784881      -0.00214544      -0.63931363
Al       4.79041174      13.09775212       9.02902406      -0.01264434      -0.00143434       0.04128194
Al       4.79317349      15.12628503      11.09372704      -0.01123103       0.00055449      -0.02801602
Al       6.95456581      13.09570511      11.05320202      -0.00822438      -0.00101199      -0.00599954
Al       6.95637326      15.12673613       9.06830567      -0.01117712       0.00082253       0.02168626
Al       5.00000000      13.10000000      13.10000000      -0.63472959      -0.00976315      -0.24098410
Al       5.00000000      15.12500000      15.12500000      -0.20180978      -0.00225967       0.16798123
Al       7.02500000      13.10000000      15.12500000       0.32299201       0.00271138       0.63313594
Al       7.02500000      15.12500000      13.10000000      -0.02562430      -0.00194078      -0.50421552
Al       5.00000000      17.15000000       5.00000000      -0.20724344       0.00893369      -0.17187998
Al       5.00000000      19.17500000       7.02500000      -0.59638363       0.02064505       0.22365371
Al       7.02500000      17.15000000       7.02500000       0.04931451      -0.00238217       0.55843294
Al       7.02500000      19.17500000       5.00000000       0.32159245       0.04705060      -0.63882525
Al       4.79404044      17.15883505       9.03139396      -0.00818679      -0.00021777       0.04070064
Al       4.81068112      19.18237255      11.09990324       0.00475634       0.00043479      -0.02897999
Al       6.96064771      17.15627309      11.05446554      -0.00443271      -0.00480599      -0.00295879
Al       6.99533351      19.16527000       9.06790468      -0.00924249       0.00100474       0.01464659
Al       5.00000000      17.15000000      13.10000000      -0.62843341       0.00379499      -0.22735692
Al       5.00000000      19.17500000      15.12500000      -0.19468225       0.03845694       0.16781486
Al       7.02500000      17.15000000      15.12500000       0.32528819       0.00916824       0.63331574
Al       7.02500000      19.17500000      13.10000000       0.08659849       0.05241533      -0.56073295
Al       5.00000000      21.20000000       5.00000000      -0.09508165      -0.45227328      -0.08200859
Al       5.00000000      23.22500000       7.02500000      -0.05017309       0.05017309       0.53135077
Al       7.02500000      21.20000000       7.02500000       0.15391140      -0.15391140       0.66596246
Al       7.02500000      23.22500000       5.00000000       0.45227328       0.09508165      -0.08200859
Al       4.87877648      21.17344318       9.04165110       0.00174247       0.00837398       0.03716622
Al       4.98205261      23.24294739      11.06729201      -0.00803495       0.00803495      -0.02356502
Al       7.03444704      21.19055296      11.04370933      -0.00725567       0.00725567       0.00181927
Al       7.05155682      23.34622352       9.04165110      -0.00837398      -0.00174247       0.03716622
Al       5.00000000      21.20000000      13.10000000      -0.48373238      -0.23829642      -0.38025196
Al       5.00000000      23.22500000      15.12500000       0.33218271      -0.33218271      -0.33117087
Al       7.02500000      21.20000000      15.12500000       0.32418730      -0.32418730       0.58016360
Al       7.02500000      23.22500000      13.10000000       0.23829642       0.48373238      -0.38025196
Al       9.05000000       5.00000000       5.00000000      -0.04052377      -0.20022519      -0.16998696
Al       9.05000000       7.02500000       7.02500000      -0.06397788       0.06899286       0.55571287
Al      11.07500000       5.00000000       7.02500000      -0.00496221      -0.63326692       0.23017912
Al      11.07500000       7.02500000       5.00000000      -0.01025538       0.32084794      -0.63784263
Al       9.04310659       4.81163663       9.02417506      -0.00264928       0.00125987       0.03916820
Al       9.05295162       6.98655783      11.05715125       0.00057776      -0.00521121      -0.00057392
Al      11.06738631       4.79724117      11.09222852      -0.00179868      -0.00679522      -0.03129623
Al      11.07043948       6.96419458       9.06824745       0.00228615      -0.00682580       0.02026422
Al       9.05000000       5.00000000      13.10000000      -0.01956994      -0.60309119      -0.21549661
Al       9.05000000       7.02500000      15.12500000      -0.04528026       0.32679786       0.63424431
Al      11.07500000       5.00000000      15.12500000      -0.00880743      -0.20188579       0.17038917
Al      11.07500000       7.02500000      13.10000000       0.00038779       0.01791266      -0.52051041
Al       9.05000000       9.05000000       5.00000000      -0.04992686      -0.04971008      -0.70038869
Al       9.05000000      11.07500000       7.02500000      -0.10877961       0.01944077       0.42418574
Al      11.07500000       9.05000000       7.02500000      -0.01355943      -0.10854219       0.41384691
Al      11.07500000      11.07500000       5.00000000      -0.01729215      -0.01783238      -0.70384505
Al       9.05336945       9.05533189       9.05376279      -0.00172879       0.00091513       0.01396683
Al       9.05846566      11.10108138      11.07452525      -0.00409173      -0.00374015      -0.00256306
Al      11.07328526       9.02889427      11.07235261      -0.00055950       0.00378385      -0.00475305
Al      11.08516483      11.08993503       9.06159161      -0.00584702      -0.00263391       0.02179892
Al       9.05000000       9.05000000      13.10000000      -0.10355575      -0.08100537      -0.43928407
Al       9.05000000      11.07500000      15.12500000      -0.05155934      -0.01162374       0.69664290
Al      11.07500000       9.05000000      15.12500000      -0.01307735      -0.04962082       0.69498263
Al      11.07500000      11.07500000      13.10000000      -0.02008026       0.01660691      -0.37209632
Al       9.05000000      13.10000000       5.00000000      -0.05598611      -0.00113743      -0.70424792
Al       9.05000000      15.12500000       7.02500000      -0.06287991       0.00004557       0.46942272
Al      11.07500000      13.10000000       7.02500000      -0.00195371       0.03936474       0.36127929
Al      11.07500000      15.12500000       5.00000000      -0.01628501       0.00044874      -0.70557088
Al       9.04185501      13.11307723       9.06060359      -0.00281052      -0.01025936       0.01846914
Al       9.00530190      15.12465773      11.07699043      -0.00157449       0.00578173      -0.00509127
Al      11.14338120      13.17766347      11.09236687      -0.01193296      -0.01762999      -0.00199845
Al      11.10831826      15.12502866       9.08302451       0.01350919       0.00779999       0.03155981
Al       9.05000000      13.10000000      13.10000000      -0.10918589       0.01932441      -0.41530319
Al       9.05000000      15.12500000      15.12500000      -0.05264068       0.00017031       0.69252791
Al      11.07500000      13.10000000      15.12500000      -0.02744936      -0.00870316       0.71456099
Al      11.07500000      15.12500000      13.10000000       0.35872840       0.01172551      -0.46662122
Al       9.05000000      17.15000000       5.00000000      -0.05363888       0.01406997      -0.70455668
Al       9.05000000      19.17500000       7.02500000      -0.07749612       0.07749612       0.46101879
Al      11.07500000      17.15000000       7.02500000       0.00906818      -0.00906818       0.37251535
Al      11.07500000      19.17500000       5.00000000      -0.01406997       0.05363888      -0.70455668
Al       9.04949182      17.13754947       9.06111474       0.00185535       0.00278900       0.01937470
Al       9.07209813      19.15290187      11.07423386       0.00112854      -0.00112854       0.00571625
Al      11.14791191      17.07708809      11.09086590      -0.01197224       0.01197224       0.00219591
Al      11.08745053      19.17550818       9.06111474      -0.00278900      -0.00185535       0.01937470
Al       9.05000000      17.15000000      13.10000000      -0.09343667      -0.00319900      -0.42045979
Al       9.05000000      19.17500000      15.12500000      -0.04669509       0.04669509       0.69636438
Al      11.07500000      17.15000000      15.12500000      -0.02543235       0.02543235       0.71397037
Al      11.07500000      19.17500000      13.10000000       0.00319900       0.09343667      -0.42045979
Al       9.05000000      21.20000000       5.00000000      -0.04705060      -0.32159245      -0.63882525
Al       9.05000000      23.22500000       7.02500000      -0.02064505       0.59638363       0.22365371
Al      11.07500000      21.20000000       7.02500000       0.00238217      -0.04931451       0.55843294
Al      11.07500000      23.22500000       5.00000000      -0.00893369       0.20724344      -0.17187998
Al       9.05973000      21.22966649       9.06790468      -0.00100474       0.00924249       0.01464659
Al       9.04262745      23.41431888      11.09990324      -0.00043479      -0.00475634      -0.02897999
Al      11.06872691      21.26435229      11.05446554       0.00480599       0.00443271      -0.00295879
Al      11.06616495      23.43095956       9.03139396       0.00021777       0.00818679       0.04070064
Al       9.05000000      21.20000000      13.10000000      -0.05241533      -0.08659849      -0.56073295
Al       9.05000000      23.22500000      15.12500000      -0.03845694       0.19468225       0.16781486
Al      11.07500000      21.20000000      15.12500000      -0.00916824      -0.32528819       0.63331574
Al      11.07500000      23.22500000      13.10000000      -0.00379499       0.62843341      -0.22735692
Al      13.10000000       5.00000000       5.00000000       0.00291481      -0.20797290      -0.17056181
Al      13.10000000       7.02500000       7.02500000       0.00313369      -0.00151148       0.53036824
Al      15.12500000       5.00000000       7.02500000       0.01224827      -0.63891893       0.24308147
Al      15.12500000       7.02500000       5.00000000       0.00007072       0.31900774      -0.63710108
Al      13.09877611       4.79367615       9.03015080      -0.00019738      -0.01388826       0.03873084
Al      13.09842751       6.95949858      11.05430813      -0.00109579      -0.00938553      -0.01064762
Al      15.12615250       4.79377827      11.09464463       0.00354489      -0.01160903      -0.03269891
Al      15.12778316       6.95804165       9.06948673       0.00405584      -0.01018435       0.02153509
Al      13.10000000       5.00000000      13.10000000      -0.00997321      -0.63124084      -0.24402610
Al      13.10000000       7.02500000      15.12500000       0.00186199       0.32362955       0.63488957
Al      15.12500000       5.00000000      15.12500000      -0.00171496      -0.20370241       0.16896950
Al      15.12500000       7.02500000      13.10000000      -0.00051865       0.00585445      -0.52875107
Al      13.10000000       9.05000000       5.00000000       0.00096878      -0.05649185      -0.70048113
Al      13.10000000      11.07500000       7.02500000      -0.00744428       0.05088337       0.41264625
Al      15.12500000       9.05000000       7.02500000       0.00082514      -0.12588453       0.40749644
Al      15.12500000      11.07500000       5.00000000       0.00265916      -0.01998060      -0.70385202
Al      13.10049364       9.02274288       9.04957182      -0.00532437      -0.00282322       0.01757478
Al      13.10124391      11.04760019      11.07890401      -0.00756188       0.00237502      -0.01499383
Al      15.12727955       9.02090674      11.07287364       0.00712749      -0.00114116      -0.00662380
Al      15.11103319      11.08508711       9.05993638       0.01173058       0.00047747       0.02388864
Al      13.10000000       9.05000000      13.10000000       0.00117238      -0.19181116      -0.34230817
Al      13.10000000      11.07500000      15.12500000      -0.00105358      -0.01593085       0.69290889
Al      15.12500000       9.05000000      15.12500000      -0.00043174      -0.05229408       0.69491040
Al      15.12500000      11.07500000      13.10000000      -0.01088097       0.00449075      -0.35461096
Al      13.10000000      13.10000000       5.00000000      -0.00117966      -0.00016658      -0.70625789
Al      13.10000000      15.12500000       7.02500000      -0.01124604       0.01124604       0.06888017
Al      15.12500000      13.10000000       7.02500000      -0.03718592       0.03718592       0.34724030
Al      15.12500000      15.12500000       5.00000000       0.00016658       0.00117966      -0.70625789
Al      13.09872246      13.14262493       9.08359070      -0.00650633       0.00906923       0.03401491
Al      15.04696476      13.17803524      11.09359079       0.01629478      -0.01629478      -0.00732841
Al      15.08237507      15.12627754       9.08359070      -0.00906923       0.00650633       0.03401491
Al      13.10000000      13.10000000      13.10000000      -0.01946289       0.39290277      -0.44691164
Al      13.10000000      15.12500000      15.12500000      -0.00209151       0.00209151       0.85405203
Al      15.12500000      13.10000000      15.12500000       0.00980216      -0.00980216       0.71514278
Al      15.12500000      15.12500000      13.10000000      -0.39290277       0.01946289      -0.44691164
Al      13.10000000      17.15000000       5.00000000      -0.00044874       0.01628501      -0.70557088
Al      13.10000000      19.17500000       7.02500000      -0.00004557       0.06287991       0.46942272
Al      15.12500000      17.15000000       7.02500000      -0.03936474       0.00195371       0.36127929
Al      15.12500000      19.17500000       5.00000000       0.00113743       0.05598611      -0.70424792
Al      13.09997134      17.11668174       9.08302451      -0.00779999      -0.01350919       0.03155981
Al      13.10034227      19.21969810      11.07699043      -0.00578173       0.00157449      -0.00509127
Al      15.04733653      17.08161880      11.09236687       0.01762999       0.01193296      -0.00199845
Al      15.11192277      19.18314499       9.06060359       0.01025936       0.00281052       0.01846914
Al      13.10000000      17.15000000      13.10000000      -0.01172551      -0.35872840      -0.46662122
Al      13.10000000      19.17500000      15.12500000      -0.00017031       0.05264068       0.69252791
Al      15.12500000      17.15000000      15.12500000       0.00870316       0.02744936       0.71456099
Al      15.12500000      19.17500000      13.10000000      -0.01932441       0.10918589      -0.41530319
Al      13.10000000      21.20000000       5.00000000       0.00214544      -0.31784881      -0.63931363
Al      13.10000000      23.22500000       7.02500000      -0.00989568       0.64536214       0.23944520
Al      15.12500000      21.20000000       7.02500000      -0.00293581      -0.03858230       0.56802165
Al      15.12500000      23.22500000       5.00000000      -0.00146851       0.20883332      -0.17031305
Al      13.09826387      21.26862674       9.06830567      -0.00082253       0.01117712       0.02168626
Al      13.09871497      23.43182651      11.09372704      -0.00055449       0.01123103      -0.02801602
Al      15.12929489      21.27043419      11.05320202       0.00101199       0.00822438      -0.00599954
Al      15.12724788      23.43458826       9.02902406       0.00143434       0.01264434       0.04128194
Al      13.10000000      21.20000000      13.10000000       0.00194078       0.02562430      -0.50421552
Al      13.10000000      23.22500000      15.12500000       0.00225967       0.20180978       0.16798123
Al      15.12500000      21.20000000      15.12500000      -0.00271138      -0.32299201       0.63313594
Al      15.12500000      23.22500000      13.10000000       0.00976315       0.63472959      -0.24098410
Al      17.15000000       5.00000000       5.00000000       0.01074517      -0.20531470      -0.17049893
Al      17.15000000       7.02500000       7.02500000       0.00220224       0.02984521       0.53840278
Al      19.17500000       5.00000000       7.02500000       0.02111769      -0.59966606       0.22191293
Al      19.17500000       7.02500000       5.00000000       0.04770663       0.32272110      -0.63500290
Al      17.15805546       4.79562437       9.03229962       0.00362108      -0.00611123       0.03772353
Al      17.15446870       6.96432823      11.05538341      -0.00049391      -0.00579247      -0.01089863
Al      19.18166597       4.81216080      11.10026093       0.00283836       0.00611341      -0.03443893
Al      19.16817059       6.99114652       9.06737272       0.00225661      -0.00794878       0.01047521
Al      17.15000000       5.00000000      13.10000000       0.00573235      -0.62639683      -0.23116135
Al      17.15000000       7.02500000      15.12500000       0.01016028       0.32492119       0.63444613
Al      19.17500000       5.00000000      15.12500000       0.03957339      -0.19628331       0.16787933
Al      19.17500000       7.02500000      13.10000000       0.05884618       0.07204687      -0.55324884
Al      17.15000000       9.05000000       5.00000000       0.01599926      -0.05432875      -0.69944168
Al      17.15000000      11.07500000       7.02500000       0.00195022      -0.00195022       0.37425422
Al      19.17500000       9.05000000       7.02500000       0.09972203      -0.09972203       0.43729693
Al      19.17500000      11.07500000       5.00000000       0.05432875      -0.01599926      -0.69944168
Al      17.14293190       9.04156049       9.05361477       0.00644110      -0.00260775       0.01882647
Al      17.12590451      11.09909549      11.07523297       0.00780896      -0.00780896      -0.01003339
Al      19.16772547       9.05727453      11.07279232       0.00104243      -0.00104243      -0.00303926
Al      19.18343951      11.08206810       9.05361477       0.00260775      -0.00644110       0.01882647
Al      17.15000000       9.05000000      13.10000000       0.00691981      -0.11372962      -0.39846342
Al      17.15000000      11.07500000      15.12500000       0.01566207      -0.01566207       0.69628496
Al      19.17500000       9.05000000      15.12500000       0.04716075      -0.04716075       0.69591268
Al      19.17500000      11.07500000      13.10000000       0.11372962      -0.00691981      -0.39846342
Al      17.15000000      13.10000000       5.00000000       0.01998060      -0.00265916      -0.70385202
Al      17.15000000      15.12500000       7.02500000      -0.05088337       0.00744428       0.41264625
Al      19.17500000      13.10000000       7.02500000       0.12588453      -0.00082514       0.40749644
Al      19.17500000      15.12500000       5.00000000       0.05649185      -0.00096878      -0.70048113
Al      17.13991289      13.11396681       9.05993638      -0.00047747      -0.01173058       0.02388864
Al      17.17739981      15.12375609      11.07890401      -0.00237502       0.00756188      -0.01499383
Al      19.20409326      13.09772045      11.07287364       0.00114116      -0.00712749      -0.00662380
Al      19.20225712      15.12450636       9.04957182       0.00282322       0.00532437       0.01757478
Al      17.15000000      13.10000000      13.10000000      -0.00449075       0.01088097      -0.35461096
Al      17.15000000      15.12500000      15.12500000       0.01593085       0.00105358       0.69290889
Al      19.17500000      13.10000000      15.12500000       0.05229408       0.00043174       0.69491040
Al      19.17500000      15.12500000      13.10000000       0.19181116      -0.00117238      -0.34230817
Al      17.15000000      17.15000000       5.00000000       0.01783238       0.01729215      -0.70384505
Al      17.15000000      19.17500000       7.02500000      -0.01944077       0.10877961       0.42418574
Al      19.17500000      17.15000000       7.02500000       0.10854219       0.01355943       0.41384691
Al      19.17500000      19.17500000       5.00000000       0.04971008       0.04992686      -0.70038869
Al      17.13506497      17.13983517       9.06159161       0.00263391       0.00584702       0.02179892
Al      17.12391862      19.16653434      11.07452525       0.00374015       0.00409173      -0.00256306
Al      19.19610573      17.15171474      11.07235261      -0.00378385       0.00055950      -0.00475305
Al      19.16966811      19.17163055       9.05376279      -0.00091513       0.00172879       0.01396683
Al      17.15000000      17.15000000      13.10000000      -0.01660691       0.02008026      -0.37209632
Al      17.15000000      19.17500000      15.12500000       0.01162374       0.05155934       0.69664290
Al      19.17500000      17.15000000      15.12500000       0.04962082       0.01307735       0.69498263
Al      19.17500000      19.17500000      13.10000000       0.08100537       0.10355575      -0.43928407
Al      17.15000000      21.20000000       5.00000000       0.01157944      -0.32015901      -0.63878424
Al      17.15000000      23.22500000       7.02500000       0.00638454       0.61887550       0.24011059
Al      19.17500000      21.20000000       7.02500000       0.05325615      -0.06995270       0.55671462
Al      19.17500000      23.22500000       5.00000000       0.04051011       0.19985023      -0.17032214
Al      17.14739536      21.25190349       9.06961251       0.00025850       0.00968955       0.02208112
Al      17.15860475      23.43008832      11.09166992      -0.00056645       0.00355957      -0.02892267
Al      19.16115118      21.22784986      11.05794560       0.00000002       0.00758977       0.00027131
Al      19.17909987      23.40719085       9.02476766       0.00308161      -0.00381092       0.04029056
Al      17.15000000      21.20000000      13.10000000      -0.01097817      -0.04752404      -0.54429725
Al      17.15000000      23.22500000      15.12500000       0.00784021       0.20086141       0.16910021
Al      19.17500000      21.20000000      15.12500000       0.04351130      -0.32535559       0.63435769
Al      19.17500000      23.22500000      13.10000000       0.01449944       0.59043744      -0.22297355
Al      21.20000000       5.00000000       5.00000000      -0.45278299      -0.09336392      -0.07943459
Al      21.20000000       7.02500000       7.02500000      -0.14764496       0.14764496       0.66655220
Al      23.22500000       5.00000000       7.02500000       0.04992084      -0.04992084       0.52674252
Al      23.22500000       7.02500000       5.00000000       0.09336392       0.45278299      -0.07943459
Al      21.17512822       4.87494549       9.04148563       0.00791255       0.00635641       0.03613371
Al      21.19649628       7.02850372      11.04338269       0.00659164      -0.00659164      -0.00771741
Al      23.24610090       4.97889910      11.06808195       0.00676624      -0.00676624      -0.02461804
Al      23.35005451       7.04987178       9.04148563      -0.00635641      -0.00791255       0.03613371
Al      21.20000000       5.00000000      13.10000000      -0.23486918      -0.49113706      -0.37989085
Al      21.20000000       7.02500000      15.12500000      -0.32305606       0.32305606       0.57961834
Al      23.22500000       5.00000000      15.12500000      -0.33119785       0.33119785      -0.33233266
Al      23.22500000       7.02500000      13.10000000       0.49113706       0.23486918      -0.37989085
Al      21.20000000       9.05000000       5.00000000      -0.32272110      -0.04770663      -0.63500290
Al      21.20000000      11.07500000       7.02500000      -0.02984521      -0.00220224       0.53840278
Al      23.22500000       9.05000000       7.02500000       0.59966606      -0.02111769       0.22191293
Al      23.22500000      11.07500000       5.00000000       0.20531470      -0.01074517      -0.17049893
Al      21.23385348       9.05682941       9.06737272       0.00794878      -0.00225661       0.01047521
Al      21.26067177      11.07053130      11.05538341       0.00579247       0.00049391      -0.01089863
Al      23.41283920       9.04333403      11.10026093      -0.00611341      -0.00283836      -0.03443893
Al      23.42937563      11.06694454       9.03229962       0.00611123      -0.00362108       0.03772353
Al      21.20000000       9.05000000      13.10000000      -0.07204687      -0.05884618      -0.55324884
Al      21.20000000      11.07500000      15.12500000      -0.32492119      -0.01016028       0.63444613
Al      23.22500000       9.05000000      15.12500000       0.19628331      -0.03957339       0.16787933
Al      23.22500000      11.07500000      13.10000000       0.62639683      -0.00573235      -0.23116135
Al      21.20000000      13.10000000       5.00000000      -0.31900774      -0.00007072      -0.63710108
Al      21.20000000      15.12500000       7.02500000       0.00151148      -0.00313369       0.53036824
Al      23.22500000      13.10000000       7.02500000       0.63891893      -0.01224827       0.24308147
Al      23.22500000      15.12500000       5.00000000       0.20797290      -0.00291481      -0.17056181
Al      21.26695835      13.09721684       9.06948673       0.01018435      -0.00405584       0.02153509
Al      21.26550142      15.12657249      11.05430813       0.00938553       0.00109579      -0.01064762
Al      23.43122173      13.09884750      11.09464463       0.01160903      -0.00354489      -0.03269891
Al      23.43132385      15.12622389       9.03015080       0.01388826       0.00019738       0.03873084
Al      21.20000000      13.10000000      13.10000000      -0.00585445       0.00051865      -0.52875107
Al      21.20000000      15.12500000      15.12500000      -0.32362955      -0.00186199       0.63488957
Al      23.22500000      13.10000000      15.12500000       0.20370241       0.00171496       0.16896950
Al      23.22500000      15.12500000      13.10000000       0.63124084       0.00997321      -0.24402610
Al      21.20000000      17.15000000       5.00000000      -0.32084794       0.01025538      -0.63784263
Al      21.20000000      19.17500000       7.02500000      -0.06899286       0.06397788       0.55571287
Al      23.22500000      17.15000000       7.02500000       0.63326692       0.00496221       0.23017912
Al      23.22500000      19.17500000       5.00000000       0.20022519       0.04052377      -0.16998696
Al      21.26080542      17.15456052       9.06824745       0.00682580      -0.00228615       0.02026422
Al      21.23844217      19.17204838      11.05715125       0.00521121      -0.00057776      -0.00057392
Al      23.42775883      17.15761369      11.09222852       0.00679522       0.00179868      -0.03129623
Al      23.41336337      19.18189341       9.02417506      -0.00125987       0.00264928       0.03916820
Al      21.20000000      17.15000000      13.10000000      -0.01791266      -0.00038779      -0.52051041