299
Lattice="28.224999999999998 0.0 0.0 0.0 28.224999999999998 0.0 0.0 0.0 20.125" Properties=species:S:1:pos:R:3:forces:R:3 energy=-16469.300716164744 pbc="T T T"
Al       5.00000000       5.00000000       5.00000000       0.32545815       0.32513963       0.33487536
Al       5.00000000       7.02500000       7.02500000      -0.50175394       0.24314717       0.37544549
Al       7.02500000       5.00000000       7.02500000       0.24069303      -0.50246284       0.37048627
Al       7.02500000       7.02500000       5.00000000       0.32304140       0.32304797      -0.59032226
Al       4.97773308       4.97741652       9.04695615      -0.01183482      -0.01103509       0.05359222
Al       4.88334026       7.04835281      11.08153044      -0.00659860      -0.00259328      -0.03615023
Al       7.04676946       4.87417368      11.08217583      -0.00431632      -0.00612803      -0.03656508
Al       7.02868410       7.02700951       9.07953454      -0.00951109      -0.00735196       0.02963562
Al       5.00000000       5.00000000      13.10000000      -0.05212494      -0.04861920      -0.52301222
Al       5.00000000       7.02500000      15.12500000      -0.09607867       0.45325813       0.08460888
Al       7.02500000       5.00000000      15.12500000       0.45328385      -0.09694237       0.08342233
Al       7.02500000       7.02500000      13.10000000       0.14622577       0.14707987      -0.66370311
Al       5.00000000       9.05000000       5.00000000      -0.20071064      -0.03738391      -0.17571018
Al       5.00000000      11.07500000       7.02500000      -0.62302427      -0.00834723       0.24039421
Al       7.02500000       9.05000000       7.02500000       0.07117152      -0.05049236       0.54974841
Al       7.02500000      11.07500000       5.00000000       0.32981729      -0.00543278      -0.65000520
Al       4.82134655       9.04400889       9.02483295      -0.00627384       0.00106205       0.04333338
Al       4.79444963      11.06501985      11.09311558      -0.00483656       0.00367812      -0.03944352
Al       6.99753820       9.06210571      11.05993326      -0.00911460       0.00083679      -0.02395932
Al       6.97202504      11.07640855       9.06913085      -0.00595929       0.00524856       0.03051366
Al       5.00000000       9.05000000      13.10000000      -0.59893376      -0.02900274      -0.23251682
Al       5.00000000      11.07500000      15.12500000      -0.20308824      -0.00615381       0.17595024
Al       7.02500000       9.05000000      15.12500000       0.32956246      -0.03968824       0.64612557
Al       7.02500000      11.07500000      13.10000000       0.04551786       0.01251556      -0.54152379
Al       5.00000000      13.10000000       5.00000000      -0.20595512       0.00364134      -0.17605535
Al       5.00000000      15.12500000       7.02500000      -0.64882072       0.01116578       0.23764580
Al       7.02500000      13.10000000       7.02500000       0.03673813       0.00524160       0.56390441
Al       7.02500000      15.12500000       5.00000000       0.32996325      -0.00247997      -0.64951285
Al       4.78695998      13.09701922       9.02851249      -0.00484376       0.00219710       0.04269435
Al       4.78914058      15.12737371      11.09470031      -0.00319253      -0.00127635      -0.03687698
Al       6.95314989      13.09555823      11.05358644      -0.00477347       0.00318348      -0.02079055
Al       6.95458439      15.12713183       9.06784814      -0.00542250      -0.00031184       0.02807272
Al       5.00000000      13.10000000      13.10000000      -0.64218474      -0.00822476      -0.24184458
Al       5.00000000      15.12500000      15.12500000      -0.20335058      -0.00225995       0.17499530
Al       7.02500000      13.10000000      15.12500000       0.33176422       0.00433809       0.64692114
Al       7.02500000      15.12500000      13.10000000      -0.02752080      -0.00164336      -0.50639579
Al       5.00000000      17.15000000       5.00000000      -0.20490523       0.00734991      -0.17604738
Al       5.00000000      19.17500000       7.02500000      -0.60035654       0.03135321       0.22938948
Al       7.02500000      17.15000000       7.02500000       0.04895848      -0.00264585       0.55270864
Al       7.02500000      19.17500000       5.00000000       0.32838980       0.04114614      -0.64671971
Al       4.79298060      17.16036600       9.03028798      -0.00525494      -0.00247222       0.04503683
Al       4.81343319      19.18369213      11.10053921      -0.00376941      -0.00121705      -0.03858740
Al       6.96001193      17.15676399      11.05534106      -0.00313688      -0.00422483      -0.02312446
Al       6.99486298      19.16661013       9.06633322      -0.00649265      -0.00003516       0.03113295
Al       5.00000000      17.15000000      13.10000000      -0.63501799       0.00847509      -0.22881499
Al       5.00000000      19.17500000      15.12500000      -0.19831217       0.03749293       0.17246088
Al       7.02500000      17.15000000      15.12500000       0.33159108       0.00607265       0.64565668
Al       7.02500000      19.17500000      13.10000000       0.08385371       0.05079938      -0.55750136
Al       5.00000000      21.20000000       5.00000000      -0.09702491      -0.45255744      -0.08398007
Al       5.00000000      23.22500000       7.02500000      -0.05003337       0.05003337       0.52691779
Al       7.02500000      21.20000000       7.02500000       0.15115535      -0.15115535       0.66283536
Al       7.02500000      23.22500000       5.00000000       0.45255744       0.09702491      -0.08398007
Al       4.88169183      21.17631897       9.04271256      -0.00538413       0.00281206       0.04075764
Al       4.98124555      23.24375445      11.07651947      -0.01018286       0.01018286      -0.05006497
Al       7.03416522      21.19083478      11.04660903      -0.00664310       0.00664310      -0.02366392
Al       7.04868103      23.34330817       9.04271256      -0.00281206       0.00538413       0.04075764
Al       5.00000000      21.20000000      13.10000000      -0.49168697      -0.24335710      -0.37252657
Al       5.00000000      23.22500000      15.12500000       0.32791354      -0.32791354      -0.33550150
Al       7.02500000      21.20000000      15.12500000       0.32439284      -0.32439284       0.58753823
Al       7.02500000      23.22500000      13.10000000       0.24335710       0.49168697      -0.37252657
Al       9.05000000       5.00000000       5.00000000      -0.03749637      -0.20146493      -0.17465482
Al       9.05000000       7.02500000       7.02500000      -0.05672306       0.06721118       0.54773587
Al      11.07500000       5.00000000       7.02500000      -0.00610780      -0.63666059       0.22808046
Al      11.07500000       7.02500000       5.00000000      -0.00533648       0.32993113      -0.64893483
Al       9.04265284       4.81348601       9.02369358      -0.00084398      -0.00695356       0.04341148
Al       9.05288256       6.98627523      11.05918608      -0.00201086      -0.00743165      -0.02437149
Al      11.06614485       4.79562570      11.09374793       0.00213327      -0.00679458      -0.03974751
Al      11.07034603       6.96340588       9.06779944       0.00290183      -0.00645675       0.02966559
Al       9.05000000       5.00000000      13.10000000      -0.02884680      -0.61171657      -0.22028533
Al       9.05000000       7.02500000      15.12500000      -0.03950220       0.32963098       0.64527001
Al      11.07500000       5.00000000      15.12500000      -0.00629252      -0.20311219       0.17582028
Al      11.07500000       7.02500000      13.10000000       0.00508319       0.01452425      -0.51657345
Al       9.05000000       9.05000000       5.00000000      -0.03964298      -0.03946784      -0.71230734
Al       9.05000000      11.07500000       7.02500000      -0.10393645       0.02191140       0.40755952
Al      11.07500000       9.05000000       7.02500000      -0.00913177      -0.10437129       0.39774004
Al      11.07500000      11.07500000       5.00000000      -0.00642621      -0.00595386      -0.71455060
Al       9.05263939       9.05384255       9.05223683      -0.00009565       0.00387679       0.03042631
Al       9.05698283      11.09894459      11.07582103       0.00112012       0.00607862      -0.02201485
Al      11.07281963       9.02825067      11.07378194       0.00331413       0.00514545      -0.02348539
Al      11.08358915      11.08772430       9.05982748       0.00564800       0.01200686       0.03029623
Al       9.05000000       9.05000000      13.10000000      -0.09753325      -0.08004696      -0.42795632
Al       9.05000000      11.07500000      15.12500000      -0.03865326      -0.00497774       0.71077287
Al      11.07500000       9.05000000      15.12500000      -0.00503628      -0.03887546       0.70865449
Al      11.07500000      11.07500000      13.10000000      -0.01036492       0.02239253      -0.35633677
Al       9.05000000      13.10000000       5.00000000      -0.04009741       0.00345881      -0.71533518
Al       9.05000000      15.12500000       7.02500000      -0.05367796      -0.00016461       0.45895742
Al      11.07500000      13.10000000       7.02500000       0.00970407       0.04459552       0.34493577
Al      11.07500000      15.12500000       5.00000000      -0.00459466      -0.00238346      -0.71509253
Al       9.04058292      13.11141684       9.05898770       0.00476398       0.00277495       0.03017166
Al       9.00454646      15.12521720      11.07724857       0.00571375       0.00188843      -0.02015560
Al      11.14034021      13.17439469      11.09299895       0.00451796      -0.00049789      -0.01170426
Al      11.10738106      15.12561189       9.08293652       0.02203595       0.00125392       0.03494161
Al       9.05000000      13.10000000      13.10000000      -0.10174977       0.02196600      -0.40760887
Al       9.05000000      15.12500000      15.12500000      -0.03685308      -0.00236875       0.70593892
Al      11.07500000      13.10000000      15.12500000      -0.01329725      -0.00390202       0.72511851
Al      11.07500000      15.12500000      13.10000000       0.37194721       0.00679889      -0.46436373
Al       9.05000000      17.15000000       5.00000000      -0.04019082       0.00711237      -0.71432857
Al       9.05000000      19.17500000       7.02500000      -0.07522850       0.07522850       0.44758098
Al      11.07500000      17.15000000       7.02500000       0.01610171      -0.01610171       0.35568695
Al      11.07500000      19.17500000       5.00000000      -0.00711237       0.04019082      -0.71432857
Al       9.04806502      17.13921177       9.05929649       0.00719548      -0.00463995       0.03219749
Al       9.07069539      19.15430461      11.07589158       0.00287938      -0.00287938      -0.02160726
Al      11.14522336      17.07977664      11.09187240       0.00042354      -0.00042354      -0.01188855
Al      11.08578823      19.17693498       9.05929649       0.00463995      -0.00719548       0.03219749
Al       9.05000000      17.15000000      13.10000000      -0.08828351      -0.00673865      -0.41267996
Al       9.05000000      19.17500000      15.12500000      -0.03901069       0.03901069       0.70899101
Al      11.07500000      17.15000000      15.12500000      -0.01397101       0.01397101       0.72522688
Al      11.07500000      19.17500000      13.10000000       0.00673865       0.08828351      -0.41267996
Al       9.05000000      21.20000000       5.00000000      -0.04114614      -0.32838980      -0.64671971
Al       9.05000000      23.22500000       7.02500000      -0.03135321       0.60035654       0.22938948
Al      11.07500000      21.20000000       7.02500000       0.00264585      -0.04895848       0.55270864
Al      11.07500000      23.22500000       5.00000000      -0.00734991       0.20490523      -0.17604738
Al       9.05838987      21.23013702       9.06633322       0.00003516       0.00649265       0.03113295
Al       9.04130787      23.41156681      11.10053921       0.00121705       0.00376941      -0.03858740
Al      11.06823601      21.26498807      11.05534106       0.00422483       0.00313688      -0.02312446
Al      11.06463400      23.43201940       9.03028798       0.00247222       0.00525494       0.04503683
Al       9.05000000      21.20000000      13.10000000      -0.05079938      -0.08385371      -0.55750136
Al       9.05000000      23.22500000      15.12500000      -0.03749293       0.19831217       0.17246088
Al      11.07500000      21.20000000      15.12500000      -0.00607265      -0.33159108       0.64565668
Al      11.07500000      23.22500000      13.10000000      -0.00847509       0.63501799      -0.22881499
Al      13.10000000       5.00000000       5.00000000       0.00315576      -0.20582022      -0.17646408
Al      13.10000000       7.02500000       7.02500000       0.00376720      -0.00318342       0.52713569
Al      15.12500000       5.00000000       7.02500000       0.00929856      -0.64278807       0.24212122
Al      15.12500000       7.02500000       5.00000000      -0.00300312       0.33027291      -0.64912922
Al      13.09773747       4.78960227       9.02940385       0.00291546      -0.00688999       0.04215721
Al      13.09816061       6.95775581      11.05474342       0.00191871      -0.00656316      -0.02122344
Al      15.12675509       4.78987725      11.09551936       0.00088563      -0.00591264      -0.03756909
Al      15.12762436       6.95654701       9.06950350       0.00170927      -0.00774510       0.02665610
Al      13.10000000       5.00000000      13.10000000      -0.00913772      -0.63721625      -0.24255578
Al      13.10000000       7.02500000      15.12500000       0.00395602       0.33163173       0.64706655
Al      15.12500000       5.00000000      15.12500000      -0.00267279      -0.20324113       0.17493575
Al      15.12500000       7.02500000      13.10000000      -0.00267393       0.00243330      -0.52709787
Al      13.10000000       9.05000000       5.00000000       0.00345167      -0.04025130      -0.71235217
Al      13.10000000      11.07500000       7.02500000      -0.00306611       0.06360910       0.39560779
Al      15.12500000       9.05000000       7.02500000      -0.00180872      -0.11874601       0.39400466
Al      15.12500000      11.07500000       5.00000000      -0.00247899      -0.00629728      -0.71390543
Al      13.10003827       9.02201039       9.04841617       0.00022050       0.00258349       0.02791783
Al      13.10062055      11.04656936      11.07882730      -0.00027295       0.01482367      -0.01968565
Al      15.12769268       9.02054900      11.07397071       0.00103136       0.00245996      -0.02158538
Al      15.11271136      11.08342651       9.05870954      -0.00121551       0.01368864       0.02817294
Al      13.10000000       9.05000000      13.10000000       0.00422745      -0.18444265      -0.33336829
Al      13.10000000      11.07500000      15.12500000       0.00351864      -0.00328800       0.70421093
Al      15.12500000       9.05000000      15.12500000      -0.00287314      -0.03917594       0.70824530
Al      15.12500000      11.07500000      13.10000000      -0.01465643       0.01339333      -0.33988679
Al      13.10000000      13.10000000       5.00000000       0.00306132       0.00529745      -0.71476761
Al      13.10000000      15.12500000       7.02500000      -0.00648811       0.00648811       0.05523856
Al      15.12500000      13.10000000       7.02500000      -0.04349509       0.04349509       0.33167024
Al      15.12500000      15.12500000       5.00000000      -0.00529745      -0.00306132      -0.71476761
Al      13.09823586      13.14165028       9.08393820       0.00114072       0.01863620       0.03276042
Al      15.05044683      13.17455317      11.09378469      -0.00023147       0.00023147      -0.00967862
Al      15.08334972      15.12676414       9.08393820      -0.01863620      -0.00114072       0.03276042
Al      13.10000000      13.10000000      13.10000000      -0.01230439       0.39872167      -0.44489646
Al      13.10000000      15.12500000      15.12500000       0.00310060      -0.00310060       0.86203280
Al      15.12500000      13.10000000      15.12500000       0.00433923      -0.00433923       0.72369430
Al      15.12500000      15.12500000      13.10000000      -0.39872167       0.01230439      -0.44489646
Al      13.10000000      17.15000000       5.00000000       0.00238346       0.00459466      -0.71509253
Al      13.10000000      19.17500000       7.02500000       0.00016461       0.05367796       0.45895742
Al      15.12500000      17.15000000       7.02500000      -0.04459552      -0.00970407       0.34493577
Al      15.12500000      19.17500000       5.00000000      -0.00345881       0.04009741      -0.71533518
Al      13.09938811      17.11761894       9.08293652      -0.00125392      -0.02203595       0.03494161
Al      13.09978280      19.22045354      11.07724857      -0.00188843      -0.00571375      -0.02015560
Al      15.05060531      17.08465979      11.09299895       0.00049789      -0.00451796      -0.01170426
Al      15.11358316      19.18441708       9.05898770      -0.00277495      -0.00476398       0.03017166
Al      13.10000000      17.15000000      13.10000000      -0.00679889      -0.37194721      -0.46436373
Al      13.10000000      19.17500000      15.12500000       0.00236875       0.03685308       0.70593892
Al      15.12500000      17.15000000      15.12500000       0.00390202       0.01329725       0.72511851
Al      15.12500000      19.17500000      13.10000000      -0.02196600       0.10174977      -0.40760887
Al      13.10000000      21.20000000       5.00000000       0.00247997      -0.32996325      -0.64951285
Al      13.10000000      23.22500000       7.02500000      -0.01116578       0.64882072       0.23764580
Al      15.12500000      21.20000000       7.02500000      -0.00524160      -0.03673813       0.56390441
Al      15.12500000      23.22500000       5.00000000      -0.00364134       0.20595512      -0.17605535
Al      13.09786817      21.27041561       9.06784814       0.00031184       0.00542250       0.02807272
Al      13.09762629      23.43585942      11.09470031       0.00127635       0.00319253      -0.03687698
Al      15.12944177      21.27185011      11.05358644      -0.00318348       0.00477347      -0.02079055
Al      15.12798078      23.43804002       9.02851249      -0.00219710       0.00484376       0.04269435
Al      13.10000000      21.20000000      13.10000000       0.00164336       0.02752080      -0.50639579
Al      13.10000000      23.22500000      15.12500000       0.00225995       0.20335058       0.17499530
Al      15.12500000      21.20000000      15.12500000      -0.00433809      -0.33176422       0.64692114
Al      15.12500000      23.22500000      13.10000000       0.00822476       0.64218474      -0.24184458
Al      17.15000000       5.00000000       5.00000000       0.00716341      -0.20494560      -0.17675909
Al      17.15000000       7.02500000       7.02500000      -0.00382253       0.02963984       0.53407357
Al      19.17500000       5.00000000       7.02500000       0.03035979      -0.60655525       0.23021307
Al      19.17500000       7.02500000       5.00000000       0.04085379       0.32844873      -0.64675807
Al      17.15883992       4.79461080       9.03118031       0.00107196      -0.00635699       0.04400600
Al      17.15426101       6.96389694      11.05627123      -0.00012090      -0.00634197      -0.02372811
Al      19.18215145       4.81515339      11.10075620       0.00205654      -0.00467312      -0.03964745
Al      19.16858366       6.99125190       9.06605277       0.00413304      -0.00863131       0.02803496
Al      17.15000000       5.00000000      13.10000000       0.00614568      -0.63139699      -0.23012533
Al      17.15000000       7.02500000      15.12500000       0.00575341       0.33166526       0.64607535
Al      19.17500000       5.00000000      15.12500000       0.03702810      -0.19838006       0.17297876
Al      19.17500000       7.02500000      13.10000000       0.05409415       0.07075944      -0.54684964
Al      17.15000000       9.05000000       5.00000000       0.00662999      -0.04014971      -0.71242585
Al      17.15000000      11.07500000       7.02500000      -0.00472906       0.00472906       0.35291222
Al      19.17500000       9.05000000       7.02500000       0.09421110      -0.09421110       0.42564440
Al      19.17500000      11.07500000       5.00000000       0.04014971      -0.00662999      -0.71242585
Al      17.14408560       9.04040581       9.05252853      -0.00094669       0.00110499       0.02923617
Al      17.12822596      11.09677404      11.07628269      -0.00483663       0.00483663      -0.02068148
Al      19.16864234       9.05635766      11.07458320       0.00140015      -0.00140015      -0.02319576
Al      19.18459419      11.08091440       9.05252853      -0.00110499       0.00094669       0.02923617
Al      17.15000000       9.05000000      13.10000000       0.00327202      -0.11033752      -0.38511994
Al      17.15000000      11.07500000      15.12500000       0.00591612      -0.00591612       0.70888810
Al      19.17500000       9.05000000      15.12500000       0.03906105      -0.03906105       0.70849618
Al      19.17500000      11.07500000      13.10000000       0.11033752      -0.00327202      -0.38511994
Al      17.15000000      13.10000000       5.00000000       0.00629728       0.00247899      -0.71390543
Al      17.15000000      15.12500000       7.02500000      -0.06360910       0.00306611       0.39560779
Al      19.17500000      13.10000000       7.02500000       0.11874601       0.00180872       0.39400466
Al      19.17500000      15.12500000       5.00000000       0.04025130      -0.00345167      -0.71235217
Al      17.14157349      13.11228864       9.05870954      -0.01368864       0.00121551       0.02817294
Al      17.17843064      15.12437945      11.07882730      -0.01482367       0.00027295      -0.01968565
Al      19.20445100      13.09730732      11.07397071      -0.00245996      -0.00103136      -0.02158538
Al      19.20298961      15.12496173       9.04841617      -0.00258349      -0.00022050       0.02791783
Al      17.15000000      13.10000000      13.10000000      -0.01339333       0.01465643      -0.33988679
Al      17.15000000      15.12500000      15.12500000       0.00328800      -0.00351864       0.70421093
Al      19.17500000      13.10000000      15.12500000       0.03917594       0.00287314       0.70824530
Al      19.17500000      15.12500000      13.10000000       0.18444265      -0.00422745      -0.33336829
Al      17.15000000      17.15000000       5.00000000       0.00595386       0.00642621      -0.71455060
Al      17.15000000      19.17500000       7.02500000      -0.02191140       0.10393645       0.40755952
Al      19.17500000      17.15000000       7.02500000       0.10437129       0.00913177       0.39774004
Al      19.17500000      19.17500000       5.00000000       0.03946784       0.03964298      -0.71230734
Al      17.13727570      17.14141085       9.05982748      -0.01200686      -0.00564800       0.03029623
Al      17.12605541      19.16801717      11.07582103      -0.00607862      -0.00112012      -0.02201485
Al      19.19674933      17.15218037      11.07378194      -0.00514545      -0.00331413      -0.02348539
Al      19.17115745      19.17236061       9.05223683      -0.00387679       0.00009565       0.03042631
Al      17.15000000      17.15000000      13.10000000      -0.02239253       0.01036492      -0.35633677
Al      17.15000000      19.17500000      15.12500000       0.00497774       0.03865326       0.71077287
Al      19.17500000      17.15000000      15.12500000       0.03887546       0.00503628       0.70865449
Al      19.17500000      19.17500000      13.10000000       0.08004696       0.09753325      -0.42795632
Al      17.15000000      21.20000000       5.00000000       0.00543278      -0.32981729      -0.65000520
Al      17.15000000      23.22500000       7.02500000       0.00834723       0.62302427       0.24039421
Al      19.17500000      21.20000000       7.02500000       0.05049236      -0.07117152       0.54974841
Al      19.17500000      23.22500000       5.00000000       0.03738391       0.20071064      -0.17571018
Al      17.14859145      21.25297496       9.06913085      -0.00524856       0.00595929       0.03051366
Al      17.15998015      23.43055037      11.09311558      -0.00367812       0.00483656      -0.03944352
Al      19.16289429      21.22746180      11.05993326      -0.00083679       0.00911460      -0.02395932
Al      19.18099111      23.40365345       9.02483295      -0.00106205       0.00627384       0.04333338
Al      17.15000000      21.20000000      13.10000000      -0.01251556      -0.04551786      -0.54152379
Al      17.15000000      23.22500000      15.12500000       0.00615381       0.20308824       0.17595024
Al      19.17500000      21.20000000      15.12500000       0.03968824      -0.32956246       0.64612557
Al      19.17500000      23.22500000      13.10000000       0.02900274       0.59893376      -0.23251682
Al      21.20000000       5.00000000       5.00000000      -0.45246624      -0.09751300      -0.08445535
Al      21.20000000       7.02500000       7.02500000      -0.14509466       0.14509466       0.66559196
Al      23.22500000       5.00000000       7.02500000       0.05105588      -0.05105588       0.52407300
Al      23.22500000       7.02500000       5.00000000       0.09751300       0.45246624      -0.08445535
Al      21.17775896       4.87848935       9.04336404       0.00368553      -0.00498820       0.03916519
Al      21.19625886       7.02874114      11.04601557       0.00767347      -0.00767347      -0.02435860
Al      23.24717329       4.97782671      11.07836518       0.01007405      -0.01007405      -0.05188529
Al      23.34651065       7.04724104       9.04336404       0.00498820      -0.00368553       0.03916519
Al      21.20000000       5.00000000      13.10000000      -0.24372343      -0.49829593      -0.37104851
Al      21.20000000       7.02500000      15.12500000      -0.32473641       0.32473641       0.58756804
Al      23.22500000       5.00000000      15.12500000      -0.32697827       0.32697827      -0.33601227
Al      23.22500000       7.02500000      13.10000000       0.49829593       0.24372343      -0.37104851
Al      21.20000000       9.05000000       5.00000000      -0.32844873      -0.04085379      -0.64675807
Al      21.20000000      11.07500000       7.02500000      -0.02963984       0.00382253       0.53407357
Al      23.22500000       9.05000000       7.02500000       0.60655525      -0.03035979       0.23021307
Al      23.22500000      11.07500000       5.00000000       0.20494560      -0.00716341      -0.17675909
Al      21.23374810       9.05641634       9.06605277       0.00863131      -0.00413304       0.02803496
Al      21.26110306      11.07073899      11.05627123       0.00634197       0.00012090      -0.02372811
Al      23.40984661       9.04284855      11.10075620       0.00467312      -0.00205654      -0.03964745
Al      23.43038920      11.06616008       9.03118031       0.00635699      -0.00107196       0.04400600
Al      21.20000000       9.05000000      13.10000000      -0.07075944      -0.05409415      -0.54684964
Al      21.20000000      11.07500000      15.12500000      -0.33166526      -0.00575341       0.64607535
Al      23.22500000       9.05000000      15.12500000       0.19838006      -0.03702810       0.17297876
Al      23.22500000      11.07500000      13.10000000       0.63139699      -0.00614568      -0.23012533
Al      21.20000000      13.10000000       5.00000000      -0.33027291       0.00300312      -0.64912922
Al      21.20000000      15.12500000       7.02500000       0.00318342      -0.00376720       0.52713569
Al      23.22500000      13.10000000       7.02500000       0.64278807      -0.00929856       0.24212122
Al      23.22500000      15.12500000       5.00000000       0.20582022      -0.00315576      -0.17646408
Al      21.26845299      13.09737564       9.06950350       0.00774510      -0.00170927       0.02665610
Al      21.26724419      15.12683939      11.05474342       0.00656316      -0.00191871      -0.02122344
Al      23.43512275      13.09824491      11.09551936       0.00591264      -0.00088563      -0.03756909
Al      23.43539773      15.12726253       9.02940385       0.00688999      -0.00291546       0.04215721
Al      21.20000000      13.10000000      13.10000000      -0.00243330       0.00267393      -0.52709787
Al      21.20000000      15.12500000      15.12500000      -0.33163173      -0.00395602       0.64706655
Al      23.22500000      13.10000000      15.12500000       0.20324113       0.00267279       0.17493575
Al      23.22500000      15.12500000      13.10000000       0.63721625       0.00913772      -0.24255578
Al      21.20000000      17.15000000       5.00000000      -0.32993113       0.00533648      -0.64893483
Al      21.20000000      19.17500000       7.02500000      -0.06721118       0.05672306       0.54773587
Al      23.22500000      17.15000000       7.02500000       0.63666059       0.00610780       0.22808046
Al      23.22500000      19.17500000       5.00000000       0.20146493       0.03749637      -0.17465482
Al      21.26159412      17.15465397       9.06779944       0.00645675      -0.00290183       0.02966559
Al      21.23872477      19.17211744      11.05918608       0.00743165       0.00201086      -0.02437149
Al      23.42937430      17.15885515      11.09374793       0.00679458      -0.00213327      -0.03974751
Al      23.41151399      19.18234716       9.02369358       0.00695356       0.00084398       0.04341148
Al      21.20000000      17.15000000      13.10000000      -0.01452425      -0.00508319      -0.51657345