299
Lattice="28.224999999999998 0.0 0.0 0.0 28.224999999999998 0.0 0.0 0.0 20.125" Properties=species:S:1:pos:R:3:forces:R:3 energy=-16469.278179786746 pbc="T T T"
Al       5.00000000       5.00000000       5.00000000       0.32911632       0.32869194       0.34495772
Al       5.00000000       7.02500000       7.02500000      -0.49184540       0.24749145       0.35739002
Al       7.02500000       5.00000000       7.02500000       0.24514547      -0.49160668       0.35278557
Al       7.02500000       7.02500000       5.00000000       0.31778807       0.31662786      -0.56305551
Al       4.97748945       4.97739435       9.04315466      -0.00148914      -0.00149692       0.07311464
Al       4.88308350       7.04827722      11.08505216       0.00085139       0.00034943      -0.06403524
Al       7.04638627       4.87410142      11.08568448       0.00182772       0.00189930      -0.06488098
Al       7.02843609       7.02709844       9.07648182       0.00327510       0.00100665       0.04854430
Al       5.00000000       5.00000000      13.10000000      -0.05247283      -0.04803867      -0.50939131
Al       5.00000000       7.02500000      15.12500000      -0.09693607       0.45234205       0.06847695
Al       7.02500000       5.00000000      15.12500000       0.45282193      -0.09762211       0.06718302
Al       7.02500000       7.02500000      13.10000000       0.14996763       0.15060011      -0.65524608
Al       5.00000000       9.05000000       5.00000000      -0.20369386      -0.04310918      -0.15460830
Al       5.00000000      11.07500000       7.02500000      -0.61396629      -0.00966250       0.23082426
Al       7.02500000       9.05000000       7.02500000       0.07758196      -0.04751064       0.54889292
Al       7.02500000      11.07500000       5.00000000       0.32358636      -0.01435705      -0.61756753
Al       4.82126361       9.04425204       9.02172281       0.00048798      -0.00211934       0.06082465
Al       4.79437219      11.06546874      11.09648027      -0.00212469      -0.00143727      -0.05882073
Al       6.99716776       9.06227508      11.06306399       0.00841761      -0.00176680      -0.04613968
Al       6.97138767      11.07672699       9.06637018       0.01320750      -0.00150729       0.04098443
Al       5.00000000       9.05000000      13.10000000      -0.59060215      -0.02632296      -0.21952866
Al       5.00000000      11.07500000      15.12500000      -0.21075440      -0.01247280       0.15497876
Al       7.02500000       9.05000000      15.12500000       0.32379369      -0.04616664       0.61705825
Al       7.02500000      11.07500000      13.10000000       0.04877662       0.00838727      -0.54407532
Al       5.00000000      13.10000000       5.00000000      -0.21564881      -0.00026340      -0.15404200
Al       5.00000000      15.12500000       7.02500000      -0.64248556       0.01134994       0.23043047
Al       7.02500000      13.10000000       7.02500000       0.03971535       0.00181529       0.57084645
Al       7.02500000      15.12500000       5.00000000       0.32353773      -0.00003370      -0.61884684
Al       4.78700152      13.09738591       9.02528267      -0.00387210      -0.00116742       0.05607239
Al       4.78920530      15.12724704      11.09832574      -0.00387348      -0.00169726      -0.05639783
Al       6.95239274      13.09590495      11.05666998       0.01683125      -0.00084127      -0.03871202
Al       6.95386668      15.12713251       9.06512043       0.01502802      -0.00108651       0.03973537
Al       5.00000000      13.10000000      13.10000000      -0.63735752      -0.01055293      -0.23407741
Al       5.00000000      15.12500000      15.12500000      -0.21417841      -0.00093691       0.15457093
Al       7.02500000      13.10000000      15.12500000       0.32617727       0.00006439       0.61721868
Al       7.02500000      15.12500000      13.10000000      -0.02355939      -0.00147382      -0.51175135
Al       5.00000000      17.15000000       5.00000000      -0.21200479       0.01179947      -0.15475126
Al       5.00000000      19.17500000       7.02500000      -0.59133314       0.02688499       0.21594596
Al       7.02500000      17.15000000       7.02500000       0.05168564      -0.00029177       0.55446630
Al       7.02500000      19.17500000       5.00000000       0.32300234       0.04615037      -0.61796216
Al       4.79316377      17.16007217       9.02735096      -0.00273778      -0.00081084       0.05725586
Al       4.81369717      19.18349451      11.10393475      -0.00248775      -0.00013351      -0.06253861
Al       6.95957417      17.15674024      11.05848067       0.01624541      -0.00373629      -0.04088718
Al       6.99479570      19.16655424       9.06359826       0.00869818      -0.00159652       0.04263742
Al       5.00000000      17.15000000      13.10000000      -0.62923717       0.00616892      -0.21768835
Al       5.00000000      19.17500000      15.12500000      -0.20481673       0.04051899       0.15529493
Al       7.02500000      17.15000000      15.12500000       0.32635399       0.01093182       0.61616181
Al       7.02500000      19.17500000      13.10000000       0.09023461       0.04362355      -0.55375078
Al       5.00000000      21.20000000       5.00000000      -0.09791885      -0.45190838      -0.06841651
Al       5.00000000      23.22500000       7.02500000      -0.04959571       0.04959571       0.51226775
Al       7.02500000      21.20000000       7.02500000       0.15565790      -0.15565790       0.65160181
Al       7.02500000      23.22500000       5.00000000       0.45190838       0.09791885      -0.06841651
Al       4.88188817      21.17633675       9.03961636      -0.00129775      -0.00087056       0.06091184
Al       4.98129609      23.24370391      11.08048030      -0.00523089       0.00523089      -0.07459669
Al       7.03427551      21.19072449      11.04995607       0.00188723      -0.00188723      -0.04995786
Al       7.04866325      23.34311183       9.03961636       0.00087056       0.00129775       0.06091184
Al       5.00000000      21.20000000      13.10000000      -0.48774311      -0.24709980      -0.35426293
Al       5.00000000      23.22500000      15.12500000       0.32742701      -0.32742701      -0.34197970
Al       7.02500000      21.20000000      15.12500000       0.31863680      -0.31863680       0.56613281
Al       7.02500000      23.22500000      13.10000000       0.24709980       0.48774311      -0.35426293
Al       9.05000000       5.00000000       5.00000000      -0.04158470      -0.20378768      -0.15275736
Al       9.05000000       7.02500000       7.02500000      -0.05234173       0.07264372       0.54818803
Al      11.07500000       5.00000000       7.02500000      -0.00646057      -0.62555794       0.21969105
Al      11.07500000       7.02500000       5.00000000      -0.01285850       0.32234764      -0.61505088
Al       9.04254214       4.81347755       9.02058850      -0.00074100       0.00311290       0.06174560
Al       9.05270297       6.98620496      11.06227921      -0.00048598       0.00650159      -0.04754160
Al      11.06636435       4.79550119      11.09704856      -0.00162870       0.00068793      -0.06091867
Al      11.07036542       6.96296113       9.06508190      -0.00172779       0.00994074       0.04081605
Al       9.05000000       5.00000000      13.10000000      -0.02594070      -0.60207135      -0.20897464
Al       9.05000000       7.02500000      15.12500000      -0.04512327       0.32334083       0.61568174
Al      11.07500000       5.00000000      15.12500000      -0.01229523      -0.21025870       0.15406102
Al      11.07500000       7.02500000      13.10000000       0.00034773       0.01696180      -0.52192546
Al       9.05000000       9.05000000       5.00000000      -0.04410224      -0.04565481      -0.67355973
Al       9.05000000      11.07500000       7.02500000      -0.10313768       0.01623299       0.42129997
Al      11.07500000       9.05000000       7.02500000      -0.01400762      -0.10518981       0.41240442
Al      11.07500000      11.07500000       5.00000000      -0.01137967      -0.01237687      -0.67164868
Al       9.05211296       9.05370721       9.04930575       0.00683576       0.00554989       0.04379622
Al       9.05606334      11.09884953      11.07903697       0.01556882       0.00568097      -0.04292996
Al      11.07252290       9.02773609      11.07689934       0.00341122       0.01483173      -0.04415992
Al      11.08306358      11.08752470       9.05696936       0.00744831       0.01045588       0.04984508
Al       9.05000000       9.05000000      13.10000000      -0.09428640      -0.07762730      -0.43754782
Al       9.05000000      11.07500000      15.12500000      -0.03997563      -0.01148098       0.67136681
Al      11.07500000       9.05000000      15.12500000      -0.01221584      -0.04114910       0.66877363
Al      11.07500000      11.07500000      13.10000000      -0.01447600       0.01873678      -0.37202799
Al       9.05000000      13.10000000       5.00000000      -0.04053651       0.00013614      -0.67516828
Al       9.05000000      15.12500000       7.02500000      -0.04801926      -0.00231654       0.47596849
Al      11.07500000      13.10000000       7.02500000       0.00227567       0.04655612       0.36368359
Al      11.07500000      15.12500000       5.00000000      -0.00861879      -0.00264045      -0.67140054
Al       9.03973770      13.11174727       9.05634142       0.01901489       0.00073738       0.04473659
Al       9.00377212      15.12527756      11.08028515       0.02139041      -0.00212441      -0.03998570
Al      11.13945345      13.17442800      11.09640167       0.01024539       0.00024260      -0.04346035
Al      11.10666016      15.12579270       9.08031198       0.02217863      -0.00173980       0.05267628
Al       9.05000000      13.10000000      13.10000000      -0.09482339       0.02203234      -0.42338776
Al       9.05000000      15.12500000      15.12500000      -0.03448221      -0.00201746       0.66664669
Al      11.07500000      13.10000000      15.12500000      -0.01586926      -0.00483671       0.68087241
Al      11.07500000      15.12500000      13.10000000       0.36732097       0.00302026      -0.47981044
Al       9.05000000      17.15000000       5.00000000      -0.04305850       0.01330952      -0.67558103
Al       9.05000000      19.17500000       7.02500000      -0.07229204       0.07229204       0.45430665
Al      11.07500000      17.15000000       7.02500000       0.01344092      -0.01344092       0.37220015
Al      11.07500000      19.17500000       5.00000000      -0.01330952       0.04305850      -0.67558103
Al       9.04739511      17.13948519       9.05645764       0.01841250      -0.00743319       0.04663325
Al       9.07024130      19.15475870      11.07922632       0.01244559      -0.01244559      -0.04315131
Al      11.14451712      17.08048288      11.09540322       0.00859157      -0.00859157      -0.04503978
Al      11.08551481      19.17760489       9.05645764       0.00743319      -0.01841250       0.04663325
Al       9.05000000      17.15000000      13.10000000      -0.08553423      -0.00573409      -0.42313038
Al       9.05000000      19.17500000      15.12500000      -0.04085539       0.04085539       0.67446709
Al      11.07500000      17.15000000      15.12500000      -0.01684978       0.01684978       0.68495327
Al      11.07500000      19.17500000      13.10000000       0.00573409       0.08553423      -0.42313038
Al       9.05000000      21.20000000       5.00000000      -0.04615037      -0.32300234      -0.61796216
Al       9.05000000      23.22500000       7.02500000      -0.02688499       0.59133314       0.21594596
Al      11.07500000      21.20000000       7.02500000       0.00029177      -0.05168564       0.55446630
Al      11.07500000      23.22500000       5.00000000      -0.01179947       0.21200479      -0.15475126
Al       9.05844576      21.23020430       9.06359826       0.00159652      -0.00869818       0.04263742
Al       9.04150549      23.41130283      11.10393475       0.00013351       0.00248775      -0.06253861
Al      11.06825976      21.26542583      11.05848067       0.00373629      -0.01624541      -0.04088718
Al      11.06492783      23.43183623       9.02735096       0.00081084       0.00273778       0.05725586
Al       9.05000000      21.20000000      13.10000000      -0.04362355      -0.09023461      -0.55375078
Al       9.05000000      23.22500000      15.12500000      -0.04051899       0.20481673       0.15529493
Al      11.07500000      21.20000000      15.12500000      -0.01093182      -0.32635399       0.61616181
Al      11.07500000      23.22500000      13.10000000      -0.00616892       0.62923717      -0.21768835
Al      13.10000000       5.00000000       5.00000000       0.00029414      -0.21438478      -0.15282041
Al      13.10000000       7.02500000       7.02500000       0.00089352      -0.00201241       0.53543383
Al      15.12500000       5.00000000       7.02500000       0.01098247      -0.63444973       0.23538670
Al      15.12500000       7.02500000       5.00000000       0.00025874       0.32210572      -0.61683768
Al      13.09810078       4.78953387       9.02620907      -0.00032611      -0.00094728       0.05545435
Al      13.09841417       6.95707657      11.05774147      -0.00340894       0.01165163      -0.04171821
Al      15.12686323       4.78978341      11.09912565      -0.00062986      -0.00316189      -0.05993933
Al      15.12774114       6.95587045       9.06684903       0.00053896       0.00829411       0.03604711
Al      13.10000000       5.00000000      13.10000000      -0.01213230      -0.63150728      -0.23710868
Al      13.10000000       7.02500000      15.12500000      -0.00161459       0.32432092       0.61686658
Al      15.12500000       5.00000000      15.12500000      -0.00129638      -0.21491033       0.15427141
Al      15.12500000       7.02500000      13.10000000      -0.00339277       0.00386497      -0.53521606
Al      13.10000000       9.05000000       5.00000000       0.00116829      -0.04207863      -0.67097196
Al      13.10000000      11.07500000       7.02500000      -0.00236586       0.05492517       0.41263015
Al      15.12500000       9.05000000       7.02500000      -0.00273192      -0.11606738       0.40942139
Al      15.12500000      11.07500000       5.00000000      -0.00158240      -0.01134872      -0.66937222
Al      13.10021689       9.02131943       9.04575876      -0.00258070       0.01386592       0.04171509
Al      13.10064703      11.04604372      11.08198304      -0.00149539       0.01659085      -0.04369498
Al      15.12781202       9.01978668      11.07691777      -0.00488432       0.01642299      -0.04153778
Al      15.11280115      11.08279413       9.05589010      -0.00532320       0.01534437       0.04716900
Al      13.10000000       9.05000000      13.10000000       0.00236859      -0.17818138      -0.35122419
Al      13.10000000      11.07500000      15.12500000       0.00164434      -0.00425633       0.65907832
Al      15.12500000       9.05000000      15.12500000      -0.00379287      -0.03808846       0.66952263
Al      15.12500000      11.07500000      13.10000000      -0.01971569       0.00836790      -0.35564731
Al      13.10000000      13.10000000       5.00000000       0.00249898       0.00328265      -0.67038389
Al      13.10000000      15.12500000       7.02500000      -0.00813248       0.00813248       0.07706087
Al      15.12500000      13.10000000       7.02500000      -0.04298499       0.04298499       0.34948929
Al      15.12500000      15.12500000       5.00000000      -0.00328265      -0.00249898      -0.67038389
Al      13.09798798      13.14168931       9.08126713       0.00214749       0.01506667       0.05660049
Al      15.05072442      13.17427558      11.09722685      -0.00493404       0.00493404      -0.04687239
Al      15.08331069      15.12701202       9.08126713      -0.01506667      -0.00214749       0.05660049
Al      13.10000000      13.10000000      13.10000000      -0.01497705       0.39766803      -0.46012613
Al      13.10000000      15.12500000      15.12500000       0.00343990      -0.00343990       0.82032819
Al      15.12500000      13.10000000      15.12500000       0.00315566      -0.00315566       0.67877754
Al      15.12500000      15.12500000      13.10000000      -0.39766803       0.01497705      -0.46012613
Al      13.10000000      17.15000000       5.00000000       0.00264045       0.00861879      -0.67140054
Al      13.10000000      19.17500000       7.02500000       0.00231654       0.04801926       0.47596849
Al      15.12500000      17.15000000       7.02500000      -0.04655612      -0.00227567       0.36368359
Al      15.12500000      19.17500000       5.00000000      -0.00013614       0.04053651      -0.67516828
Al      13.09920730      17.11833984       9.08031198       0.00173980      -0.02217863       0.05267628
Al      13.09972244      19.22122788      11.08028515       0.00212441      -0.02139041      -0.03998570
Al      15.05057200      17.08554655      11.09640167      -0.00024260      -0.01024539      -0.04346035
Al      15.11325273      19.18526230       9.05634142      -0.00073738      -0.01901489       0.04473659
Al      13.10000000      17.15000000      13.10000000      -0.00302026      -0.36732097      -0.47981044
Al      13.10000000      19.17500000      15.12500000       0.00201746       0.03448221       0.66664669
Al      15.12500000      17.15000000      15.12500000       0.00483671       0.01586926       0.68087241
Al      15.12500000      19.17500000      13.10000000      -0.02203234       0.09482339      -0.42338776
Al      13.10000000      21.20000000       5.00000000       0.00003370      -0.32353773      -0.61884684
Al      13.10000000      23.22500000       7.02500000      -0.01134994       0.64248556       0.23043047
Al      15.12500000      21.20000000       7.02500000      -0.00181529      -0.03971535       0.57084645
Al      15.12500000      23.22500000       5.00000000       0.00026340       0.21564881      -0.15404200
Al      13.09786749      21.27113332       9.06512043       0.00108651      -0.01502802       0.03973537
Al      13.09775296      23.43579470      11.09832574       0.00169726       0.00387348      -0.05639783
Al      15.12909505      21.27260726      11.05666998       0.00084127      -0.01683125      -0.03871202
Al      15.12761409      23.43799848       9.02528267       0.00116742       0.00387210       0.05607239
Al      13.10000000      21.20000000      13.10000000       0.00147382       0.02355939      -0.51175135
Al      13.10000000      23.22500000      15.12500000       0.00093691       0.21417841       0.15457093
Al      15.12500000      21.20000000      15.12500000      -0.00006439      -0.32617727       0.61721868
Al      15.12500000      23.22500000      13.10000000       0.01055293       0.63735752      -0.23407741
Al      17.15000000       5.00000000       5.00000000       0.01286502      -0.21084270      -0.15348104
Al      17.15000000       7.02500000       7.02500000       0.00005521       0.03047707       0.53617371
Al      19.17500000       5.00000000       7.02500000       0.02831554      -0.59536760       0.21535608
Al      19.17500000       7.02500000       5.00000000       0.04771745       0.32102356      -0.61585378
Al      17.15895073       4.79461007       9.02820095       0.00188074      -0.00006664       0.05546257
Al      17.15448480       6.96344341      11.05943821       0.00042591       0.00789070      -0.04599043
Al      19.18241719       4.81519706      11.10427595       0.00226793      -0.00073772      -0.06665966
Al      19.16878287       6.99107078       9.06318420       0.00355493       0.00400635       0.03915116
Al      17.15000000       5.00000000      13.10000000       0.00615292      -0.62627762      -0.22048349
Al      17.15000000       7.02500000      15.12500000       0.01164219       0.32328118       0.61712883
Al      19.17500000       5.00000000      15.12500000       0.04166401      -0.20538023       0.15488945
Al      19.17500000       7.02500000      13.10000000       0.05013463       0.07355730      -0.54448117
Al      17.15000000       9.05000000       5.00000000       0.01348654      -0.04424449      -0.67220275
Al      17.15000000      11.07500000       7.02500000       0.00096608      -0.00096608       0.36562320
Al      19.17500000       9.05000000       7.02500000       0.09283029      -0.09283029       0.43214667
Al      19.17500000      11.07500000       5.00000000       0.04424449      -0.01348654      -0.67220275
Al      17.14446519       9.03973090       9.04969753      -0.00232864       0.00884580       0.03895936
Al      17.12890541      11.09609459      11.07952651      -0.01152490       0.01152490      -0.04520192
Al      19.16911330       9.05588670      11.07797971      -0.00412885       0.00412885      -0.04830487
Al      19.18526910      11.08053481       9.04969753      -0.00884580       0.00232864       0.03895936
Al      17.15000000       9.05000000      13.10000000       0.00431884      -0.10812066      -0.39725545
Al      17.15000000      11.07500000      15.12500000       0.00758561      -0.00758561       0.66820369
Al      19.17500000       9.05000000      15.12500000       0.04350270      -0.04350270       0.67485853
Al      19.17500000      11.07500000      13.10000000       0.10812066      -0.00431884      -0.39725545
Al      17.15000000      13.10000000       5.00000000       0.01134872       0.00158240      -0.66937222
Al      17.15000000      15.12500000       7.02500000      -0.05492517       0.00236586       0.41263015
Al      19.17500000      13.10000000       7.02500000       0.11606738       0.00273192       0.40942139
Al      19.17500000      15.12500000       5.00000000       0.04207863      -0.00116829      -0.67097196
Al      17.14220587      13.11219885       9.05589010      -0.01534437       0.00532320       0.04716900
Al      17.17895628      15.12435297      11.08198304      -0.01659085       0.00149539      -0.04369498
Al      19.20521332      13.09718798      11.07691777      -0.01642299       0.00488432      -0.04153778
Al      19.20368057      15.12478311       9.04575876      -0.01386592       0.00258070       0.04171509
Al      17.15000000      13.10000000      13.10000000      -0.00836790       0.01971569      -0.35564731
Al      17.15000000      15.12500000      15.12500000       0.00425633      -0.00164434       0.65907832
Al      19.17500000      13.10000000      15.12500000       0.03808846       0.00379287       0.66952263
Al      19.17500000      15.12500000      13.10000000       0.17818138      -0.00236859      -0.35122419
Al      17.15000000      17.15000000       5.00000000       0.01237687       0.01137967      -0.67164868
Al      17.15000000      19.17500000       7.02500000      -0.01623299       0.10313768       0.42129997
Al      19.17500000      17.15000000       7.02500000       0.10518981       0.01400762       0.41240442
Al      19.17500000      19.17500000       5.00000000       0.04565481       0.04410224      -0.67355973
Al      17.13747530      17.14193642       9.05696936      -0.01045588      -0.00744831       0.04984508
Al      17.12615047      19.16893666      11.07903697      -0.00568097      -0.01556882      -0.04292996
Al      19.19726391      17.15247710      11.07689934      -0.01483173      -0.00341122      -0.04415992
Al      19.17129279      19.17288704       9.04930575      -0.00554989      -0.00683576       0.04379622
Al      17.15000000      17.15000000      13.10000000      -0.01873678       0.01447600      -0.37202799
Al      17.15000000      19.17500000      15.12500000       0.01148098       0.03997563       0.67136681
Al      19.17500000      17.15000000      15.12500000       0.04114910       0.01221584       0.66877363
Al      19.17500000      19.17500000      13.10000000       0.07762730       0.09428640      -0.43754782
Al      17.15000000      21.20000000       5.00000000       0.01435705      -0.32358636      -0.61756753
Al      17.15000000      23.22500000       7.02500000       0.00966250       0.61396629       0.23082426
Al      19.17500000      21.20000000       7.02500000       0.04751064      -0.07758196       0.54889292
Al      19.17500000      23.22500000       5.00000000       0.04310918       0.20369386      -0.15460830
Al      17.14827301      21.25361233       9.06637018       0.00150729      -0.01320750       0.04098443
Al      17.15953126      23.43062781      11.09648027       0.00143727       0.00212469      -0.05882073
Al      19.16272492      21.22783224      11.06306399       0.00176680      -0.00841761      -0.04613968
Al      19.18074796      23.40373639       9.02172281       0.00211934      -0.00048798       0.06082465
Al      17.15000000      21.20000000      13.10000000      -0.00838727      -0.04877662      -0.54407532
Al      17.15000000      23.22500000      15.12500000       0.01247280       0.21075440       0.15497876
Al      19.17500000      21.20000000      15.12500000       0.04616664      -0.32379369       0.61705825
Al      19.17500000      23.22500000      13.10000000       0.02632296       0.59060215      -0.21952866
Al      21.20000000       5.00000000       5.00000000      -0.45224458      -0.09594223      -0.06613945
Al      21.20000000       7.02500000       7.02500000      -0.14775053       0.14775053       0.65320271
Al      23.22500000       5.00000000       7.02500000       0.04838121      -0.04838121       0.50764501
Al      23.22500000       7.02500000       5.00000000       0.09594223       0.45224458      -0.06613945
Al      21.17807304       4.87850027       9.03999927      -0.00157715       0.00336297       0.05908083
Al      21.19632628       7.02867372      11.04959420       0.00026732      -0.00026732      -0.05616784
Al      23.24719047       4.97780953      11.08238550       0.00266222      -0.00266222      -0.07686880
Al      23.34649973       7.04692696       9.03999927      -0.00336297       0.00157715       0.05908083
Al      21.20000000       5.00000000      13.10000000      -0.24511354      -0.49375701      -0.35239753
Al      21.20000000       7.02500000      15.12500000      -0.31691386       0.31691386       0.56506289
Al      23.22500000       5.00000000      15.12500000      -0.32765123       0.32765123      -0.34407951
Al      23.22500000       7.02500000      13.10000000       0.49375701       0.24511354      -0.35239753
Al      21.20000000       9.05000000       5.00000000      -0.32102356      -0.04771745      -0.61585378
Al      21.20000000      11.07500000       7.02500000      -0.03047707      -0.00005521       0.53617371
Al      23.22500000       9.05000000       7.02500000       0.59536760      -0.02831554       0.21535608
Al      23.22500000      11.07500000       5.00000000       0.21084270      -0.01286502      -0.15348104
Al      21.23392922       9.05621713       9.06318420      -0.00400635      -0.00355493       0.03915116
Al      21.26155659      11.07051520      11.05943821      -0.00789070      -0.00042591      -0.04599043
Al      23.40980294       9.04258281      11.10427595       0.00073772      -0.00226793      -0.06665966
Al      23.43038993      11.06604927       9.02820095       0.00006664      -0.00188074       0.05546257
Al      21.20000000       9.05000000      13.10000000      -0.07355730      -0.05013463      -0.54448117
Al      21.20000000      11.07500000      15.12500000      -0.32328118      -0.01164219       0.61712883
Al      23.22500000       9.05000000      15.12500000       0.20538023      -0.04166401       0.15488945
Al      23.22500000      11.07500000      13.10000000       0.62627762      -0.00615292      -0.22048349
Al      21.20000000      13.10000000       5.00000000      -0.32210572      -0.00025874      -0.61683768
Al      21.20000000      15.12500000       7.02500000       0.00201241      -0.00089352       0.53543383
Al      23.22500000      13.10000000       7.02500000       0.63444973      -0.01098247       0.23538670
Al      23.22500000      15.12500000       5.00000000       0.21438478      -0.00029414      -0.15282041
Al      21.26912955      13.09725886       9.06684903      -0.00829411      -0.00053896       0.03604711
Al      21.26792343      15.12658583      11.05774147      -0.01165163       0.00340894      -0.04171821
Al      23.43521659      13.09813677      11.09912565       0.00316189       0.00062986      -0.05993933
Al      23.43546613      15.12689922       9.02620907       0.00094728       0.00032611       0.05545435
Al      21.20000000      13.10000000      13.10000000      -0.00386497       0.00339277      -0.53521606
Al      21.20000000      15.12500000      15.12500000      -0.32432092       0.00161459       0.61686658
Al      23.22500000      13.10000000      15.12500000       0.21491033       0.00129638       0.15427141
Al      23.22500000      15.12500000      13.10000000       0.63150728       0.01213230      -0.23710868
Al      21.20000000      17.15000000       5.00000000      -0.32234764       0.01285850      -0.61505088
Al      21.20000000      19.17500000       7.02500000      -0.07264372       0.05234173       0.54818803
Al      23.22500000      17.15000000       7.02500000       0.62555794       0.00646057       0.21969105
Al      23.22500000      19.17500000       5.00000000       0.20378768       0.04158470      -0.15275736
Al      21.26203887      17.15463458       9.06508190      -0.00994074       0.00172779       0.04081605
Al      21.23879504      19.17229703      11.06227921      -0.00650159       0.00048598      -0.04754160
Al      23.42949881      17.15863565      11.09704856      -0.00068793       0.00162870      -0.06091867
Al      23.41152245      19.18245786       9.02058850      -0.00311290       0.00074100       0.06174560
Al      21.20000000      17.15000000      13.10000000      -0.01696180      -0.00034773      -0.52192546