299
Lattice="28.224999999999998 0.0 0.0 0.0 28.224999999999998 0.0 0.0 0.0 20.125" Properties=species:S:1:pos:R:3:forces:R:3 energy=-16469.310546298126 pbc="T T T"
Al       5.00000000       5.00000000       5.00000000       0.33362532       0.33372353       0.34299631
Al       5.00000000       7.02500000       7.02500000      -0.48132880       0.24769893       0.36648232
Al       7.02500000       5.00000000       7.02500000       0.24536888      -0.48141654       0.36146263
Al       7.02500000       7.02500000       5.00000000       0.31511475       0.31492903      -0.55267230
Al       4.97732159       4.97701975       9.04893591      -0.00669413      -0.00534171       0.06193375
Al       4.88311988       7.04824457      11.07864012      -0.00786554      -0.00381315      -0.02720126
Al       7.04662187       4.87392472      11.07930099      -0.00513780      -0.00666673      -0.02805065
Al       7.02878162       7.02715514       9.08136508      -0.01110614      -0.00946039      -0.00704541
Al       5.00000000       5.00000000      13.10000000      -0.04667606      -0.04256259      -0.52077020
Al       5.00000000       7.02500000      15.12500000      -0.09046581       0.45017627       0.06608646
Al       7.02500000       5.00000000      15.12500000       0.45024603      -0.09089054       0.06490035
Al       7.02500000       7.02500000      13.10000000       0.15096874       0.15171337      -0.65839875
Al       5.00000000       9.05000000       5.00000000      -0.19770444      -0.04529105      -0.15226823
Al       5.00000000      11.07500000       7.02500000      -0.60507085      -0.01502640       0.23888103
Al       7.02500000       9.05000000       7.02500000       0.07323841      -0.05856209       0.54766827
Al       7.02500000      11.07500000       5.00000000       0.31252957      -0.01660342      -0.60769063
Al       4.82120724       9.04396073       9.02724945      -0.00586151      -0.00005900       0.03074350
Al       4.79424431      11.06466357      11.09023046      -0.00490781       0.00106515      -0.03202384
Al       6.99763466       9.06206547      11.05784444      -0.01011130      -0.00064972       0.00967655
Al       6.97248639      11.07607664       9.07101270      -0.01314968      -0.00104401      -0.00662627
Al       5.00000000       9.05000000      13.10000000      -0.58067568      -0.03392264      -0.23063913
Al       5.00000000      11.07500000      15.12500000      -0.20577442      -0.01347552       0.15349519
Al       7.02500000       9.05000000      15.12500000       0.31611696      -0.05214071       0.60612444
Al       7.02500000      11.07500000      13.10000000       0.04469332       0.00310172      -0.54900752
Al       5.00000000      13.10000000       5.00000000      -0.20992333      -0.00031624      -0.15259532
Al       5.00000000      15.12500000       7.02500000      -0.63346866       0.01113221       0.23947873
Al       7.02500000      13.10000000       7.02500000       0.03284301      -0.00102784       0.57053816
Al       7.02500000      15.12500000       5.00000000       0.30946928      -0.00057436      -0.60927313
Al       4.78664610      13.09665250       9.03108758      -0.00485898       0.00078919       0.03371959
Al       4.78872640      15.12749588      11.09173348      -0.00373801      -0.00315441      -0.03057487
Al       6.95403918      13.09513225      11.05085685      -0.01979109       0.00078479       0.01558202
Al       6.95548294      15.12722583       9.07002110      -0.02130133      -0.00159662      -0.01055150
Al       5.00000000      13.10000000      13.10000000      -0.62681335      -0.01228221      -0.24737956
Al       5.00000000      15.12500000      15.12500000      -0.20883068      -0.00127523       0.15355308
Al       7.02500000      13.10000000      15.12500000       0.31255338      -0.00074689       0.60784148
Al       7.02500000      15.12500000      13.10000000      -0.03090463      -0.00153049      -0.51659581
Al       5.00000000      17.15000000       5.00000000      -0.20740922       0.01254376      -0.15320167
Al       5.00000000      19.17500000       7.02500000      -0.58315031       0.03468371       0.22324113
Al       7.02500000      17.15000000       7.02500000       0.04630404       0.00365918       0.55515664
Al       7.02500000      19.17500000       5.00000000       0.31462232       0.05262262      -0.60681405
Al       4.79271434      17.16055247       9.03278023      -0.00656824      -0.00208226       0.03478344
Al       4.81306508      19.18368643      11.09785968      -0.00523151      -0.00125409      -0.02981555
Al       6.96035831      17.15681818      11.05302551      -0.01126675      -0.00088533       0.01043109
Al       6.99489772      19.16660084       9.06790875      -0.00805886       0.00053714      -0.00423434
Al       5.00000000      17.15000000      13.10000000      -0.62010212       0.01134472      -0.22971288
Al       5.00000000      19.17500000      15.12500000      -0.19877698       0.04441426       0.15247102
Al       7.02500000      17.15000000      15.12500000       0.31415711       0.01376510       0.60724373
Al       7.02500000      19.17500000      13.10000000       0.08426563       0.05657134      -0.55783746
Al       5.00000000      21.20000000       5.00000000      -0.09150359      -0.44989512      -0.06588753
Al       5.00000000      23.22500000       7.02500000      -0.04555332       0.04555332       0.52137946
Al       7.02500000      21.20000000       7.02500000       0.15554185      -0.15554185       0.65255760
Al       7.02500000      23.22500000       5.00000000       0.44989512       0.09150359      -0.06588753
Al       4.88135266      21.17651531       9.04525918      -0.00801251       0.00389348       0.02956894
Al       4.98070934      23.24429066      11.07437262      -0.00642045       0.00642045      -0.06042108
Al       7.03421951      21.19078049      11.04451764      -0.00920738       0.00920738       0.00821791
Al       7.04848469      23.34364734       9.04525918      -0.00389348       0.00801251       0.02956894
Al       5.00000000      21.20000000      13.10000000      -0.47567224      -0.24664077      -0.36495359
Al       5.00000000      23.22500000      15.12500000       0.33336866      -0.33336866      -0.34131501
Al       7.02500000      21.20000000      15.12500000       0.31512379      -0.31512379       0.55457985
Al       7.02500000      23.22500000      13.10000000       0.24664077       0.47567224      -0.36495359
Al       9.05000000       5.00000000       5.00000000      -0.04444712      -0.19793986      -0.15107635
Al       9.05000000       7.02500000       7.02500000      -0.06350363       0.06915063       0.54582170
Al      11.07500000       5.00000000       7.02500000      -0.01072011      -0.61745577       0.22685731
Al      11.07500000       7.02500000       5.00000000      -0.01425737       0.31285987      -0.60586043
Al       9.04255784       4.81329658       9.02609121      -0.00086097      -0.00559983       0.03096835
Al       9.05276931       6.98638095      11.05710479      -0.00179538      -0.00874160       0.00898742
Al      11.06571211       4.79531760      11.09082150       0.00167055      -0.00537532      -0.03242705
Al      11.06994127       6.96384331       9.06964504      -0.00038901      -0.01388338      -0.00783779
Al       9.05000000       5.00000000      13.10000000      -0.03295931      -0.59272010      -0.21865281
Al       9.05000000       7.02500000      15.12500000      -0.05142086       0.31614231       0.60508782
Al      11.07500000       5.00000000      15.12500000      -0.01242107      -0.20544818       0.15298634
Al      11.07500000       7.02500000      13.10000000      -0.00256674       0.01406939      -0.52547758
Al       9.05000000       9.05000000       5.00000000      -0.05573051      -0.05679296      -0.66538168
Al       9.05000000      11.07500000       7.02500000      -0.11748478       0.00848766       0.41963603
Al      11.07500000       9.05000000       7.02500000      -0.01936614      -0.11929044       0.41019432
Al      11.07500000      11.07500000       5.00000000      -0.02060506      -0.02288050      -0.66826260
Al       9.05275360       9.05401517       9.05358198      -0.00541722      -0.00289502      -0.00421331
Al       9.05727283      11.09903084      11.07357215      -0.00928544      -0.00860815       0.01304896
Al      11.07280700       9.02854703      11.07148517      -0.00756855      -0.00607235       0.01176253
Al      11.08338182      11.08759971       9.06163797      -0.00349806       0.00075672      -0.00733737
Al       9.05000000       9.05000000      13.10000000      -0.10696323      -0.09067909      -0.44041722
Al       9.05000000      11.07500000      15.12500000      -0.05756477      -0.01817556       0.66641360
Al      11.07500000       9.05000000      15.12500000      -0.01673761      -0.05803824       0.66366424
Al      11.07500000      11.07500000      13.10000000      -0.02424141       0.00352467      -0.37683597
Al       9.05000000      13.10000000       5.00000000      -0.06190021      -0.00383558      -0.67075804
Al       9.05000000      15.12500000       7.02500000      -0.06825843       0.00101839       0.47367490
Al      11.07500000      13.10000000       7.02500000      -0.00231602       0.03734092       0.36717104
Al      11.07500000      15.12500000       5.00000000      -0.01932122       0.00123066      -0.67105949
Al       9.04101416      13.11110736       9.06075944      -0.00558152      -0.00201190      -0.00806361
Al       9.00501733      15.12510796      11.07485693      -0.00870552       0.00376635       0.01449926
Al      11.14008673      13.17415194      11.09036375      -0.00470366      -0.00640114       0.01970660
Al      11.10746838      15.12562298       9.08490999       0.02162364       0.00327440       0.00342834
Al       9.05000000      13.10000000      13.10000000      -0.12073733       0.01304638      -0.42400672
Al       9.05000000      15.12500000      15.12500000      -0.05963057       0.00040959       0.66525247
Al      11.07500000      13.10000000      15.12500000      -0.03101142      -0.01402206       0.68704666
Al      11.07500000      15.12500000      13.10000000       0.35275906       0.00922266      -0.48852738
Al       9.05000000      17.15000000       5.00000000      -0.06035360       0.01880417      -0.66999983
Al       9.05000000      19.17500000       7.02500000      -0.08554722       0.08554722       0.45420802
Al      11.07500000      17.15000000       7.02500000       0.00628425      -0.00628425       0.37492834
Al      11.07500000      19.17500000       5.00000000      -0.01880417       0.06035360      -0.66999983
Al       9.04840871      17.13890404       9.06088568      -0.00101336       0.00640319      -0.00304728
Al       9.07091972      19.15408028      11.07413813      -0.00341671       0.00341671       0.00796960
Al      11.14533000      17.07967000      11.08939268      -0.00891613       0.00891613       0.01828971
Al      11.08609596      19.17659129       9.06088568      -0.00640319       0.00101336      -0.00304728
Al       9.05000000      17.15000000      13.10000000      -0.10494594       0.00258531      -0.42621487
Al       9.05000000      19.17500000      15.12500000      -0.05440062       0.05440062       0.66726063
Al      11.07500000      17.15000000      15.12500000      -0.03009122       0.03009122       0.68713159
Al      11.07500000      19.17500000      13.10000000      -0.00258531       0.10494594      -0.42621487
Al       9.05000000      21.20000000       5.00000000      -0.05262262      -0.31462232      -0.60681405
Al       9.05000000      23.22500000       7.02500000      -0.03468371       0.58315031       0.22324113
Al      11.07500000      21.20000000       7.02500000      -0.00365918      -0.04630404       0.55515664
Al      11.07500000      23.22500000       5.00000000      -0.01254376       0.20740922      -0.15320167
Al       9.05839916      21.23010228       9.06790875      -0.00053714       0.00805886      -0.00423434
Al       9.04131357      23.41193492      11.09785968       0.00125409       0.00523151      -0.02981555
Al      11.06818182      21.26464169      11.05302551       0.00088533       0.01126675       0.01043109
Al      11.06444753      23.43228566       9.03278023       0.00208226       0.00656824       0.03478344
Al       9.05000000      21.20000000      13.10000000      -0.05657134      -0.08426563      -0.55783746
Al       9.05000000      23.22500000      15.12500000      -0.04441426       0.19877698       0.15247102
Al      11.07500000      21.20000000      15.12500000      -0.01376510      -0.31415711       0.60724373
Al      11.07500000      23.22500000      13.10000000      -0.01134472       0.62010212      -0.22971288
Al      13.10000000       5.00000000       5.00000000       0.00142416      -0.20835353      -0.15190473
Al      13.10000000       7.02500000       7.02500000       0.00115083      -0.00597587       0.53488441
Al      15.12500000       5.00000000       7.02500000       0.01180142      -0.62463466       0.24462147
Al      15.12500000       7.02500000       5.00000000       0.00167465       0.31126544      -0.60629670
Al      13.09737393       4.78915560       9.03193360       0.00387014      -0.00409324       0.03311618
Al      13.09763389       6.95861454      11.05192634       0.00354437      -0.02066941       0.01445260
Al      15.12693369       4.78928062      11.09245565       0.00120886      -0.00272216      -0.03169280
Al      15.12779194       6.95739348       9.07159076       0.00271952      -0.02130323      -0.01157391
Al      13.10000000       5.00000000      13.10000000      -0.01091048      -0.62072936      -0.24963421
Al      13.10000000       7.02500000      15.12500000       0.00075175       0.31241238       0.60701163
Al      15.12500000       5.00000000      15.12500000       0.00051722      -0.20789711       0.15216670
Al      15.12500000       7.02500000      13.10000000       0.00058444       0.00013974      -0.54092173
Al      13.10000000       9.05000000       5.00000000      -0.00027024      -0.06281360      -0.66599363
Al      13.10000000      11.07500000       7.02500000      -0.00749303       0.04785956       0.41729440
Al      15.12500000       9.05000000       7.02500000       0.00349382      -0.13540536       0.40881721
Al      15.12500000      11.07500000       5.00000000       0.00484228      -0.02398926      -0.66823217
Al      13.09968898       9.02242190       9.05015037      -0.00123116      -0.01148558      -0.01178973
Al      13.10019606      11.04631965      11.07616007      -0.00048640       0.00163023       0.01407614
Al      15.12760688       9.02096879      11.07139354       0.00612842      -0.01031018       0.01571052
Al      15.11282878      11.08311726       9.06050800       0.00262739       0.00556337      -0.00808782
Al      13.10000000       9.05000000      13.10000000       0.00051082      -0.19961890      -0.35383572
Al      13.10000000      11.07500000      15.12500000      -0.00104925      -0.02148143       0.66228302
Al      15.12500000       9.05000000      15.12500000       0.00214806      -0.05962895       0.66399978
Al      15.12500000      11.07500000      13.10000000      -0.00665469      -0.00574344      -0.36512184
Al      13.10000000      13.10000000       5.00000000      -0.00142076      -0.00259189      -0.67102377
Al      13.10000000      15.12500000       7.02500000      -0.01043445       0.01043445       0.08216056
Al      15.12500000      13.10000000       7.02500000      -0.03671288       0.03671288       0.35826100
Al      15.12500000      15.12500000       5.00000000       0.00259189       0.00142076      -0.67102377
Al      13.09788771      13.14172400       9.08592620       0.00069910       0.02067462       0.00210114
Al      15.05044163      13.17455837      11.09103794       0.00676983      -0.00676983       0.01946980
Al      15.08327600      15.12711229       9.08592620      -0.02067462      -0.00069910       0.00210114
Al      13.10000000      13.10000000      13.10000000      -0.01699486       0.38353154      -0.47304300
Al      13.10000000      15.12500000      15.12500000      -0.00126730       0.00126730       0.82974527
Al      15.12500000      13.10000000      15.12500000       0.01428450      -0.01428450       0.68618706
Al      15.12500000      15.12500000      13.10000000      -0.38353154       0.01699486      -0.47304300
Al      13.10000000      17.15000000       5.00000000      -0.00123066       0.01932122      -0.67105949
Al      13.10000000      19.17500000       7.02500000      -0.00101839       0.06825843       0.47367490
Al      15.12500000      17.15000000       7.02500000      -0.03734092       0.00231602       0.36717104
Al      15.12500000      19.17500000       5.00000000       0.00383558       0.06190021      -0.67075804
Al      13.09937702      17.11753162       9.08490999      -0.00327440      -0.02162364       0.00342834
Al      13.09989204      19.21998267      11.07485693      -0.00376635       0.00870552       0.01449926
Al      15.05084806      17.08491327      11.09036375       0.00640114       0.00470366       0.01970660
Al      15.11389264      19.18398584       9.06075944       0.00201190       0.00558152      -0.00806361
Al      13.10000000      17.15000000      13.10000000      -0.00922266      -0.35275906      -0.48852738
Al      13.10000000      19.17500000      15.12500000      -0.00040959       0.05963057       0.66525247
Al      15.12500000      17.15000000      15.12500000       0.01402206       0.03101142       0.68704666
Al      15.12500000      19.17500000      13.10000000      -0.01304638       0.12073733      -0.42400672
Al      13.10000000      21.20000000       5.00000000       0.00057436      -0.30946928      -0.60927313
Al      13.10000000      23.22500000       7.02500000      -0.01113221       0.63346866       0.23947873
Al      15.12500000      21.20000000       7.02500000       0.00102784      -0.03284301       0.57053816
Al      15.12500000      23.22500000       5.00000000       0.00031624       0.20992333      -0.15259532
Al      13.09777417      21.26951706       9.07002110       0.00159662       0.02130133      -0.01055150
Al      13.09750412      23.43627360      11.09173348       0.00315441       0.00373801      -0.03057487
Al      15.12986775      21.27096082      11.05085685      -0.00078479       0.01979109       0.01558202
Al      15.12834750      23.43835390       9.03108758      -0.00078919       0.00485898       0.03371959
Al      13.10000000      21.20000000      13.10000000       0.00153049       0.03090463      -0.51659581
Al      13.10000000      23.22500000      15.12500000       0.00127523       0.20883068       0.15355308
Al      15.12500000      21.20000000      15.12500000       0.00074689      -0.31255338       0.60784148
Al      15.12500000      23.22500000      13.10000000       0.01228221       0.62681335      -0.24737956
Al      17.15000000       5.00000000       5.00000000       0.01401317      -0.20477404      -0.15175800
Al      17.15000000       7.02500000       7.02500000       0.00444238       0.02932875       0.53796344
Al      19.17500000       5.00000000       7.02500000       0.03440341      -0.58561701       0.22480505
Al      19.17500000       7.02500000       5.00000000       0.05275811       0.31607327      -0.60366452
Al      17.15909254       4.79426310       9.03357878       0.00280059      -0.00384541       0.03380878
Al      17.15440008       6.96419594      11.05373270       0.00457084      -0.01255567       0.01010042
Al      19.18216581       4.81469015      11.09795452       0.00268123      -0.00211078      -0.03038640
Al      19.16857776       6.99128129       9.06758318       0.00468623      -0.00903260      -0.00808410
Al      17.15000000       5.00000000      13.10000000       0.01142857      -0.61375081      -0.23311526
Al      17.15000000       7.02500000      15.12500000       0.01584629       0.31409328       0.60526841
Al      19.17500000       5.00000000      15.12500000       0.04512952      -0.19672844       0.15061232
Al      19.17500000       7.02500000      13.10000000       0.06136881       0.07202358      -0.55081061
Al      17.15000000       9.05000000       5.00000000       0.02008598      -0.06017943      -0.66427213
Al      17.15000000      11.07500000       7.02500000       0.00991923      -0.00991923       0.37074137
Al      19.17500000       9.05000000       7.02500000       0.10410878      -0.10410878       0.43377934
Al      19.17500000      11.07500000       5.00000000       0.06017943      -0.02008598      -0.66427213
Al      17.14382111       9.04077966       9.05406954       0.01241952      -0.00923458      -0.00762068
Al      17.12818748      11.09681252      11.07361809       0.00789103      -0.00789103       0.01560601
Al      19.16838627       9.05661373      11.07250074       0.00704513      -0.00704513       0.00816555
Al      19.18422034      11.08117889       9.05406954       0.00923458      -0.01241952      -0.00762068
Al      17.15000000       9.05000000      13.10000000       0.01305983      -0.12293521      -0.40469158
Al      17.15000000      11.07500000      15.12500000       0.02025369      -0.02025369       0.66387418
Al      19.17500000       9.05000000      15.12500000       0.05556232      -0.05556232       0.66371363
Al      19.17500000      11.07500000      13.10000000       0.12293521      -0.01305983      -0.40469158
Al      17.15000000      13.10000000       5.00000000       0.02398926      -0.00484228      -0.66823217
Al      17.15000000      15.12500000       7.02500000      -0.04785956       0.00749303       0.41729440
Al      19.17500000      13.10000000       7.02500000       0.13540536      -0.00349382       0.40881721
Al      19.17500000      15.12500000       5.00000000       0.06281360       0.00027024      -0.66599363
Al      17.14188274      13.11217122       9.06050800      -0.00556337      -0.00262739      -0.00808782
Al      17.17868035      15.12480394      11.07616007      -0.00163023       0.00048640       0.01407614
Al      19.20403121      13.09739312      11.07139354       0.01031018      -0.00612842       0.01571052
Al      19.20257810      15.12531102       9.05015037       0.01148558       0.00123116      -0.01178973
Al      17.15000000      13.10000000      13.10000000       0.00574344       0.00665469      -0.36512184
Al      17.15000000      15.12500000      15.12500000       0.02148143       0.00104925       0.66228302
Al      19.17500000      13.10000000      15.12500000       0.05962895      -0.00214806       0.66399978
Al      19.17500000      15.12500000      13.10000000       0.19961890      -0.00051082      -0.35383572
Al      17.15000000      17.15000000       5.00000000       0.02288050       0.02060506      -0.66826260
Al      17.15000000      19.17500000       7.02500000      -0.00848766       0.11748478       0.41963603
Al      19.17500000      17.15000000       7.02500000       0.11929044       0.01936614       0.41019432
Al      19.17500000      19.17500000       5.00000000       0.05679296       0.05573051      -0.66538168
Al      17.13740029      17.14161818       9.06163797      -0.00075672       0.00349806      -0.00733737
Al      17.12596916      19.16772717      11.07357215       0.00860815       0.00928544       0.01304896
Al      19.19645297      17.15219300      11.07148517       0.00607235       0.00756855       0.01176253
Al      19.17098483      19.17224640       9.05358198       0.00289502       0.00541722      -0.00421331
Al      17.15000000      17.15000000      13.10000000      -0.00352467       0.02424141      -0.37683597
Al      17.15000000      19.17500000      15.12500000       0.01817556       0.05756477       0.66641360
Al      19.17500000      17.15000000      15.12500000       0.05803824       0.01673761       0.66366424
Al      19.17500000      19.17500000      13.10000000       0.09067909       0.10696323      -0.44041722
Al      17.15000000      21.20000000       5.00000000       0.01660342      -0.31252957      -0.60769063
Al      17.15000000      23.22500000       7.02500000       0.01502640       0.60507085       0.23888103
Al      19.17500000      21.20000000       7.02500000       0.05856209      -0.07323841       0.54766827
Al      19.17500000      23.22500000       5.00000000       0.04529105       0.19770444      -0.15226823
Al      17.14892336      21.25251361       9.07101270       0.00104401       0.01314968      -0.00662627
Al      17.16033643      23.43075569      11.09023046      -0.00106515       0.00490781      -0.03202384
Al      19.16293453      21.22736534      11.05784444       0.00064972       0.01011130       0.00967655
Al      19.18103927      23.40379276       9.02724945       0.00005900       0.00586151       0.03074350
Al      17.15000000      21.20000000      13.10000000      -0.00310172      -0.04469332      -0.54900752
Al      17.15000000      23.22500000      15.12500000       0.01347552       0.20577442       0.15349519
Al      19.17500000      21.20000000      15.12500000       0.05214071      -0.31611696       0.60612444
Al      19.17500000      23.22500000      13.10000000       0.03392264       0.58067568      -0.23063913
Al      21.20000000       5.00000000       5.00000000      -0.45050516      -0.08915745      -0.06401885
Al      21.20000000       7.02500000       7.02500000      -0.15058515       0.15058515       0.65674492
Al      23.22500000       5.00000000       7.02500000       0.04355804      -0.04355804       0.51958035
Al      23.22500000       7.02500000       5.00000000       0.08915745       0.45050516      -0.06401885
Al      21.17788468       4.87815027       9.04589227       0.00487564      -0.00415046       0.02805300
Al      21.19621233       7.02878767      11.04364645       0.00967873      -0.00967873       0.00908909
Al      23.24772767       4.97727233      11.07615028       0.00315345      -0.00315345      -0.06234006
Al      23.34684973       7.04711532       9.04589227       0.00415046      -0.00487564       0.02805300
Al      21.20000000       5.00000000      13.10000000      -0.24748166      -0.47854397      -0.36549203
Al      21.20000000       7.02500000      15.12500000      -0.31550791       0.31550791       0.55158207
Al      23.22500000       5.00000000      15.12500000      -0.33457294       0.33457294      -0.34374877
Al      23.22500000       7.02500000      13.10000000       0.47854397       0.24748166      -0.36549203
Al      21.20000000       9.05000000       5.00000000      -0.31607327      -0.05275811      -0.60366452
Al      21.20000000      11.07500000       7.02500000      -0.02932875      -0.00444238       0.53796344
Al      23.22500000       9.05000000       7.02500000       0.58561701      -0.03440341       0.22480505
Al      23.22500000      11.07500000       5.00000000       0.20477404      -0.01401317      -0.15175800
Al      21.23371871       9.05642224       9.06758318       0.00903260      -0.00468623      -0.00808410
Al      21.26080406      11.07059992      11.05373270       0.01255567      -0.00457084       0.01010042
Al      23.41030985       9.04283419      11.09795452       0.00211078      -0.00268123      -0.03038640
Al      23.43073690      11.06590746       9.03357878       0.00384541      -0.00280059       0.03380878
Al      21.20000000       9.05000000      13.10000000      -0.07202358      -0.06136881      -0.55081061
Al      21.20000000      11.07500000      15.12500000      -0.31409328      -0.01584629       0.60526841
Al      23.22500000       9.05000000      15.12500000       0.19672844      -0.04512952       0.15061232
Al      23.22500000      11.07500000      13.10000000       0.61375081      -0.01142857      -0.23311526
Al      21.20000000      13.10000000       5.00000000      -0.31126544      -0.00167465      -0.60629670
Al      21.20000000      15.12500000       7.02500000       0.00597587      -0.00115083       0.53488441
Al      23.22500000      13.10000000       7.02500000       0.62463466      -0.01180142       0.24462147
Al      23.22500000      15.12500000       5.00000000       0.20835353      -0.00142416      -0.15190473
Al      21.26760652      13.09720806       9.07159076       0.02130323      -0.00271952      -0.01157391
Al      21.26638546      15.12736611      11.05192634       0.02066941      -0.00354437       0.01445260
Al      23.43571938      13.09806631      11.09245565       0.00272216      -0.00120886      -0.03169280
Al      23.43584440      15.12762607       9.03193360       0.00409324      -0.00387014       0.03311618
Al      21.20000000      13.10000000      13.10000000      -0.00013974      -0.00058444      -0.54092173
Al      21.20000000      15.12500000      15.12500000      -0.31241238      -0.00075175       0.60701163
Al      23.22500000      13.10000000      15.12500000       0.20789711      -0.00051722       0.15216670
Al      23.22500000      15.12500000      13.10000000       0.62072936       0.01091048      -0.24963421
Al      21.20000000      17.15000000       5.00000000      -0.31285987       0.01425737      -0.60586043
Al      21.20000000      19.17500000       7.02500000      -0.06915063       0.06350363       0.54582170
Al      23.22500000      17.15000000       7.02500000       0.61745577       0.01072011       0.22685731
Al      23.22500000      19.17500000       5.00000000       0.19793986       0.04444712      -0.15107635
Al      21.26115669      17.15505873       9.06964504       0.01388338       0.00038901      -0.00783779
Al      21.23861905      19.17223069      11.05710479       0.00874160       0.00179538       0.00898742
Al      23.42968240      17.15928789      11.09082150       0.00537532      -0.00167055      -0.03242705
Al      23.41170342      19.18244216       9.02609121       0.00559983       0.00086097       0.03096835
Al      21.20000000      17.15000000      13.10000000      -0.01406939       0.00256674      -0.52547758