299
Lattice="28.224999999999998 0.0 0.0 0.0 28.224999999999998 0.0 0.0 0.0 20.125" Properties=species:S:1:pos:R:3:forces:R:3 energy=-16469.307923505243 pbc="T T T"
Al       5.00000000       5.00000000       5.00000000       0.32604803       0.32619177       0.33257180
Al       5.00000000       7.02500000       7.02500000      -0.49779308       0.24827479       0.38478596
Al       7.02500000       5.00000000       7.02500000       0.24429731      -0.49786954       0.37950426
Al       7.02500000       7.02500000       5.00000000       0.32524803       0.32608143      -0.58781810
Al       4.97736260       4.97709177       9.04900753      -0.01243721      -0.01103112       0.02758569
Al       4.88314435       7.04830106      11.07841586      -0.00353312       0.00205156       0.00079853
Al       7.04661463       4.87396187      11.07909352      -0.00106503      -0.00261137      -0.00038198
Al       7.02876996       7.02720899       9.08173818      -0.00603577      -0.00258265      -0.00654742
Al       5.00000000       5.00000000      13.10000000      -0.04759103      -0.04296500      -0.52977264
Al       5.00000000       7.02500000      15.12500000      -0.09122704       0.45674523       0.08548261
Al       7.02500000       5.00000000      15.12500000       0.45533806      -0.09176929       0.08475849
Al       7.02500000       7.02500000      13.10000000       0.15205620       0.15564008      -0.67248246
Al       5.00000000       9.05000000       5.00000000      -0.19692925      -0.03806743      -0.17474991
Al       5.00000000      11.07500000       7.02500000      -0.61659286      -0.00909516       0.25681989
Al       7.02500000       9.05000000       7.02500000       0.07657569      -0.04825851       0.56168143
Al       7.02500000      11.07500000       5.00000000       0.32900142      -0.00976375      -0.64404978
Al       4.82120527       9.04398791       9.02746080      -0.00103445       0.00672388       0.00948178
Al       4.79433342      11.06477388      11.09003980       0.00385674       0.00722928      -0.00256163
Al       6.99764069       9.06212804      11.05746783      -0.00202070       0.00974729       0.01599985
Al       6.97246607      11.07621948       9.07146222      -0.00252175       0.00712585      -0.00366337
Al       5.00000000       9.05000000      13.10000000      -0.59106839      -0.02545449      -0.24493763
Al       5.00000000      11.07500000      15.12500000      -0.19791675      -0.00707810       0.17338578
Al       7.02500000       9.05000000      15.12500000       0.33260300      -0.03906564       0.63978932
Al       7.02500000      11.07500000      13.10000000       0.05330920       0.01308802      -0.55856525
Al       5.00000000      13.10000000       5.00000000      -0.20546549       0.00175229      -0.17480773
Al       5.00000000      15.12500000       7.02500000      -0.64283836       0.00917887       0.25885634
Al       7.02500000      13.10000000       7.02500000       0.04114780       0.00302894       0.58675846
Al       7.02500000      15.12500000       5.00000000       0.32783031      -0.00182739      -0.64489019
Al       4.78678883      13.09668731       9.03137611       0.00356642       0.00383211       0.01185219
Al       4.78890846      15.12739283      11.09149363       0.00708277      -0.00393224       0.00002452
Al       6.95401960      13.09522206      11.05043854      -0.00599205       0.00484744       0.02434179
Al       6.95548360      15.12709960       9.07055076      -0.00791828      -0.00278227      -0.00763197
Al       5.00000000      13.10000000      13.10000000      -0.63172940      -0.00867520      -0.26218452
Al       5.00000000      15.12500000      15.12500000      -0.19935093      -0.00190267       0.17242007
Al       7.02500000      13.10000000      15.12500000       0.33176283       0.00263024       0.63941158
Al       7.02500000      15.12500000      13.10000000      -0.02070449      -0.00329455      -0.52736075
Al       5.00000000      17.15000000       5.00000000      -0.20373290       0.00849239      -0.17559519
Al       5.00000000      19.17500000       7.02500000      -0.59680923       0.02853612       0.24131641
Al       7.02500000      17.15000000       7.02500000       0.05401520      -0.00415095       0.57054894
Al       7.02500000      19.17500000       5.00000000       0.32962417       0.04236602      -0.64327628
Al       4.79275227      17.16039761       9.03299005       0.00206233      -0.00622709       0.01435644
Al       4.81305186      19.18362621      11.09771471       0.00384722      -0.00750703      -0.00163530
Al       6.96040987      17.15661963      11.05268390       0.00095611      -0.00675940       0.01837568
Al       6.99496445      19.16651225       9.06830076       0.00001273      -0.00768466       0.00131648
Al       5.00000000      17.15000000      13.10000000      -0.62575183       0.00566099      -0.24357151
Al       5.00000000      19.17500000      15.12500000      -0.19244285       0.03651173       0.17167241
Al       7.02500000      17.15000000      15.12500000       0.33299337       0.00826933       0.63851232
Al       7.02500000      19.17500000      13.10000000       0.09188880       0.04572521      -0.56724265
Al       5.00000000      21.20000000       5.00000000      -0.09486580      -0.45402132      -0.08638572
Al       5.00000000      23.22500000       7.02500000      -0.04732833       0.04732833       0.53213177
Al       7.02500000      21.20000000       7.02500000       0.15587051      -0.15587051       0.67164062
Al       7.02500000      23.22500000       5.00000000       0.45402132       0.09486580      -0.08638572
Al       4.88130210      21.17648523       9.04546394      -0.00206492      -0.00105454       0.00882143
Al       4.98073878      23.24426122      11.07431925      -0.00853293       0.00853293      -0.02180663
Al       7.03428457      21.19071543      11.04424857      -0.00188718       0.00188718       0.01529085
Al       7.04851477      23.34369790       9.04546394       0.00105454       0.00206492       0.00882143
Al       5.00000000      21.20000000      13.10000000      -0.48665494      -0.24908363      -0.38041395
Al       5.00000000      23.22500000      15.12500000       0.32948302      -0.32948302      -0.33268121
Al       7.02500000      21.20000000      15.12500000       0.32901729      -0.32901729       0.58515399
Al       7.02500000      23.22500000      13.10000000       0.24908363       0.48665494      -0.38041395
Al       9.05000000       5.00000000       5.00000000      -0.03857206      -0.19765639      -0.17437601
Al       9.05000000       7.02500000       7.02500000      -0.05614532       0.07400254       0.55902050
Al      11.07500000       5.00000000       7.02500000      -0.00677840      -0.63043662       0.24306702
Al      11.07500000       7.02500000       5.00000000      -0.00945439       0.32966541      -0.64365953
Al       9.04253051       4.81327287       9.02627599       0.00328904      -0.00147026       0.00932523
Al       9.05272105       6.98645100      11.05673751       0.00509307       0.00097816       0.01458525
Al      11.06579994       4.79533849      11.09063059       0.00455527       0.00167042      -0.00395688
Al      11.07002454       6.96386370       9.07006254       0.00437544      -0.00255666      -0.00559250
Al       9.05000000       5.00000000      13.10000000      -0.02774822      -0.60426407      -0.23237902
Al       9.05000000       7.02500000      15.12500000      -0.04136379       0.33419572       0.63994965
Al      11.07500000       5.00000000      15.12500000      -0.00872632      -0.19926573       0.17512904
Al      11.07500000       7.02500000      13.10000000       0.00308796       0.02405219      -0.53404122
Al       9.05000000       9.05000000       5.00000000      -0.04458042      -0.04368020      -0.70414308
Al       9.05000000      11.07500000       7.02500000      -0.10666643       0.01880956       0.42989427
Al      11.07500000       9.05000000       7.02500000      -0.01281335      -0.10559629       0.41937379
Al      11.07500000      11.07500000       5.00000000      -0.01433118      -0.01376544      -0.70701780
Al       9.05268403       9.05402396       9.05401405       0.00375026       0.00987465       0.00161138
Al       9.05721472      11.09917658      11.07315588       0.00199080       0.00272677       0.01866413
Al      11.07283658       9.02857463      11.07107978      -0.00096515       0.00866843       0.01631621
Al      11.08342684      11.08768637       9.06212056       0.00275561       0.01136481      -0.00073758
Al       9.05000000       9.05000000      13.10000000      -0.09669874      -0.07561286      -0.44452170
Al       9.05000000      11.07500000      15.12500000      -0.04534724      -0.00942463       0.70041587
Al      11.07500000       9.05000000      15.12500000      -0.01152944      -0.04285362       0.69923472
Al      11.07500000      11.07500000      13.10000000      -0.01786723       0.01719406      -0.38349970
Al       9.05000000      13.10000000       5.00000000      -0.04837750       0.00004101      -0.70806824
Al       9.05000000      15.12500000       7.02500000      -0.05702136      -0.00088860       0.48516021
Al      11.07500000      13.10000000       7.02500000       0.00240127       0.04108287       0.37752060
Al      11.07500000      15.12500000       5.00000000      -0.01295982       0.00037469      -0.70895877
Al       9.04089546      13.11116725       9.06124738       0.00590261       0.00297614      -0.00165249
Al       9.00490816      15.12506031      11.07446651       0.00582913       0.00190140       0.02187612
Al      11.14020575      13.17427273      11.08978766      -0.00208407      -0.00382868       0.03271700
Al      11.10736708      15.12558173       9.08533003       0.02521940       0.00203772       0.00763937
Al       9.05000000      13.10000000      13.10000000      -0.10667930       0.01940194      -0.43196799
Al       9.05000000      15.12500000      15.12500000      -0.04587040      -0.00043341       0.69706005
Al      11.07500000      13.10000000      15.12500000      -0.02414779      -0.00802540       0.71814179
Al      11.07500000      15.12500000      13.10000000       0.36018035       0.00864532      -0.49522503
Al       9.05000000      17.15000000       5.00000000      -0.04640641       0.01183162      -0.70710231
Al       9.05000000      19.17500000       7.02500000      -0.07308954       0.07308954       0.46469413
Al      11.07500000      17.15000000       7.02500000       0.01231051      -0.01231051       0.38451297
Al      11.07500000      19.17500000       5.00000000      -0.01183162       0.04640641      -0.70710231
Al       9.04837858      17.13879539       9.06136164       0.01076923      -0.00165924       0.00420206
Al       9.07099669      19.15400331      11.07378368       0.00804365      -0.00804365       0.01395178
Al      11.14545025      17.07954975      11.08886021      -0.00461184       0.00461184       0.03150621
Al      11.08620461      19.17662142       9.06136164       0.00165924      -0.01076923       0.00420206
Al       9.05000000      17.15000000      13.10000000      -0.08986171      -0.00612426      -0.43303709
Al       9.05000000      19.17500000      15.12500000      -0.04193340       0.04193340       0.69977080
Al      11.07500000      17.15000000      15.12500000      -0.02228061       0.02228061       0.71699598
Al      11.07500000      19.17500000      13.10000000       0.00612426       0.08986171      -0.43303709
Al       9.05000000      21.20000000       5.00000000      -0.04236602      -0.32962417      -0.64327628
Al       9.05000000      23.22500000       7.02500000      -0.02853612       0.59680923       0.24131641
Al      11.07500000      21.20000000       7.02500000       0.00415095      -0.05401520       0.57054894
Al      11.07500000      23.22500000       5.00000000      -0.00849239       0.20373290      -0.17559519
Al       9.05848775      21.23003555       9.06830076       0.00768466      -0.00001273       0.00131648
Al       9.04137379      23.41194814      11.09771471       0.00750703      -0.00384722      -0.00163530
Al      11.06838037      21.26459013      11.05268390       0.00675940      -0.00095611       0.01837568
Al      11.06460239      23.43224773       9.03299005       0.00622709      -0.00206233       0.01435644
Al       9.05000000      21.20000000      13.10000000      -0.04572521      -0.09188880      -0.56724265
Al       9.05000000      23.22500000      15.12500000      -0.03651173       0.19244285       0.17167241
Al      11.07500000      21.20000000      15.12500000      -0.00826933      -0.33299337       0.63851232
Al      11.07500000      23.22500000      13.10000000      -0.00566099       0.62575183      -0.24357151
Al      13.10000000       5.00000000       5.00000000       0.00224860      -0.20520869      -0.17574952
Al      13.10000000       7.02500000       7.02500000       0.00290503       0.00201778       0.54870051
Al      15.12500000       5.00000000       7.02500000       0.00954802      -0.63669727       0.26118649
Al      15.12500000       7.02500000       5.00000000      -0.00060146       0.32869208      -0.64428217
Al      13.09745172       4.78922706       9.03219854       0.00431603       0.00207192       0.00948795
Al      13.09773933       6.95859330      11.05149175       0.00360898      -0.00678211       0.02151997
Al      15.12693213       4.78938802      11.09219385      -0.00181531       0.00388929      -0.00253626
Al      15.12777390       6.95735244       9.07207914      -0.00106715      -0.00875959      -0.01130281
Al      13.10000000       5.00000000      13.10000000      -0.01001018      -0.62914872      -0.26334301
Al      13.10000000       7.02500000      15.12500000       0.00106382       0.33260438       0.64215467
Al      15.12500000       5.00000000      15.12500000      -0.00233940      -0.20153006       0.17473112
Al      15.12500000       7.02500000      13.10000000      -0.00386847       0.01006496      -0.55016611
Al      13.10000000       9.05000000       5.00000000       0.00104274      -0.04821948      -0.70523520
Al      13.10000000      11.07500000       7.02500000      -0.00642331       0.05683589       0.42761190
Al      15.12500000       9.05000000       7.02500000      -0.00054809      -0.12208894       0.41835095
Al      15.12500000      11.07500000       5.00000000       0.00143201      -0.01541675      -0.70776351
Al      13.09972607       9.02241227       9.05063813       0.00010764       0.00307759      -0.00664133
Al      13.10024143      11.04647442      11.07567910      -0.00056690       0.01325265       0.02034078
Al      15.12758750       9.02093248      11.07097555       0.00048922       0.00413380       0.01965826
Al      15.11276242      11.08326001       9.06104300      -0.00193307       0.01411136      -0.00333164
Al      13.10000000       9.05000000      13.10000000       0.00082989      -0.18496654      -0.35906133
Al      13.10000000      11.07500000      15.12500000      -0.00129083      -0.01216141       0.69746168
Al      15.12500000       9.05000000      15.12500000      -0.00184722      -0.04497681       0.70084066
Al      15.12500000      11.07500000      13.10000000      -0.01323442       0.00698368      -0.37258017
Al      13.10000000      13.10000000       5.00000000      -0.00068223       0.00133530      -0.71027950
Al      13.10000000      15.12500000       7.02500000      -0.01000715       0.01000715       0.09194390
Al      15.12500000      13.10000000       7.02500000      -0.03979576       0.03979576       0.36836999
Al      15.12500000      15.12500000       5.00000000      -0.00133530       0.00068223      -0.71027950
Al      13.09798921      13.14161375       9.08641843      -0.00033330       0.02292810       0.00500897
Al      15.05032279      13.17467721      11.09032007       0.00438034      -0.00438034       0.03342390
Al      15.08338625      15.12701079       9.08641843      -0.02292810       0.00033330       0.00500897
Al      13.10000000      13.10000000      13.10000000      -0.01763128       0.39119855      -0.48081419
Al      13.10000000      15.12500000      15.12500000      -0.00141237       0.00141237       0.85736405
Al      15.12500000      13.10000000      15.12500000       0.00818982      -0.00818982       0.71959205
Al      15.12500000      15.12500000      13.10000000      -0.39119855       0.01763128      -0.48081419
Al      13.10000000      17.15000000       5.00000000      -0.00037469       0.01295982      -0.70895877
Al      13.10000000      19.17500000       7.02500000       0.00088860       0.05702136       0.48516021
Al      15.12500000      17.15000000       7.02500000      -0.04108287      -0.00240127       0.37752060
Al      15.12500000      19.17500000       5.00000000      -0.00004101       0.04837750      -0.70806824
Al      13.09941827      17.11763292       9.08533003      -0.00203772      -0.02521940       0.00763937
Al      13.09993969      19.22009184      11.07446651      -0.00190140      -0.00582913       0.02187612
Al      15.05072727      17.08479425      11.08978766       0.00382868       0.00208407       0.03271700
Al      15.11383275      19.18410454       9.06124738      -0.00297614      -0.00590261      -0.00165249
Al      13.10000000      17.15000000      13.10000000      -0.00864532      -0.36018035      -0.49522503
Al      13.10000000      19.17500000      15.12500000       0.00043341       0.04587040       0.69706005
Al      15.12500000      17.15000000      15.12500000       0.00802540       0.02414779       0.71814179
Al      15.12500000      19.17500000      13.10000000      -0.01940194       0.10667930      -0.43196799
Al      13.10000000      21.20000000       5.00000000       0.00182739      -0.32783031      -0.64489019
Al      13.10000000      23.22500000       7.02500000      -0.00917887       0.64283836       0.25885634
Al      15.12500000      21.20000000       7.02500000      -0.00302894      -0.04114780       0.58675846
Al      15.12500000      23.22500000       5.00000000      -0.00175229       0.20546549      -0.17480773
Al      13.09790040      21.26951640       9.07055076       0.00278227       0.00791828      -0.00763197
Al      13.09760717      23.43609154      11.09149363       0.00393224      -0.00708277       0.00002452
Al      15.12977794      21.27098040      11.05043854      -0.00484744       0.00599205       0.02434179
Al      15.12831269      23.43821117       9.03137611      -0.00383211      -0.00356642       0.01185219
Al      13.10000000      21.20000000      13.10000000       0.00329455       0.02070449      -0.52736075
Al      13.10000000      23.22500000      15.12500000       0.00190267       0.19935093       0.17242007
Al      15.12500000      21.20000000      15.12500000      -0.00263024      -0.33176283       0.63941158
Al      15.12500000      23.22500000      13.10000000       0.00867520       0.63172940      -0.26218452
Al      17.15000000       5.00000000       5.00000000       0.00952733      -0.20259436      -0.17580425
Al      17.15000000       7.02500000       7.02500000      -0.00233353       0.03541795       0.55005268
Al      19.17500000       5.00000000       7.02500000       0.02959986      -0.60135347       0.24087550
Al      19.17500000       7.02500000       5.00000000       0.04296888       0.33026274      -0.64187055
Al      17.15908490       4.79430139       9.03379120      -0.00186736       0.00030502       0.00983527
Al      17.15438092       6.96417956      11.05332253      -0.00329825      -0.00140404       0.01601835
Al      19.18222036       4.81474187      11.09773116      -0.00291798       0.00036608      -0.00348551
Al      19.16868461       6.99129095       9.06802676      -0.00348837      -0.00208443      -0.00860873
Al      17.15000000       5.00000000      13.10000000       0.00550246      -0.62481920      -0.24642976
Al      17.15000000       7.02500000      15.12500000       0.00826385       0.33289087       0.64174363
Al      19.17500000       5.00000000      15.12500000       0.03726736      -0.19466264       0.17365364
Al      19.17500000       7.02500000      13.10000000       0.05154627       0.07774327      -0.55993133
Al      17.15000000       9.05000000       5.00000000       0.01275633      -0.04667482      -0.70421930
Al      17.15000000      11.07500000       7.02500000       0.00055808      -0.00055808       0.37942162
Al      19.17500000       9.05000000       7.02500000       0.09341330      -0.09341330       0.44104692
Al      19.17500000      11.07500000       5.00000000       0.04667482      -0.01275633      -0.70421930
Al      17.14383102       9.04070118       9.05453112       0.00237068       0.00363413      -0.00392193
Al      17.12809127      11.09690873      11.07315442      -0.00278678       0.00278678       0.01971465
Al      19.16848015       9.05651985      11.07206121      -0.00462869       0.00462869       0.01200556
Al      19.18429882      11.08116898       9.05453112      -0.00363413      -0.00237068      -0.00392193
Al      17.15000000       9.05000000      13.10000000       0.00342386      -0.10935310      -0.40836635
Al      17.15000000      11.07500000      15.12500000       0.01196989      -0.01196989       0.70134239
Al      19.17500000       9.05000000      15.12500000       0.04163859      -0.04163859       0.70186658
Al      19.17500000      11.07500000      13.10000000       0.10935310      -0.00342386      -0.40836635
Al      17.15000000      13.10000000       5.00000000       0.01541675      -0.00143201      -0.70776351
Al      17.15000000      15.12500000       7.02500000      -0.05683589       0.00642331       0.42761190
Al      19.17500000      13.10000000       7.02500000       0.12208894       0.00054809       0.41835095
Al      19.17500000      15.12500000       5.00000000       0.04821948      -0.00104274      -0.70523520
Al      17.14173999      13.11223758       9.06104300      -0.01411136       0.00193307      -0.00333164
Al      17.17852558      15.12475857      11.07567910      -0.01325265       0.00056690       0.02034078
Al      19.20406752      13.09741250      11.07097555      -0.00413380      -0.00048922       0.01965826
Al      19.20258773      15.12527393       9.05063813      -0.00307759      -0.00010764      -0.00664133
Al      17.15000000      13.10000000      13.10000000      -0.00698368       0.01323442      -0.37258017
Al      17.15000000      15.12500000      15.12500000       0.01216141       0.00129083       0.69746168
Al      19.17500000      13.10000000      15.12500000       0.04497681       0.00184722       0.70084066
Al      19.17500000      15.12500000      13.10000000       0.18496654      -0.00082989      -0.35906133
Al      17.15000000      17.15000000       5.00000000       0.01376544       0.01433118      -0.70701780
Al      17.15000000      19.17500000       7.02500000      -0.01880956       0.10666643       0.42989427
Al      19.17500000      17.15000000       7.02500000       0.10559629       0.01281335       0.41937379
Al      19.17500000      19.17500000       5.00000000       0.04368020       0.04458042      -0.70414308
Al      17.13731363      17.14157316       9.06212056      -0.01136481      -0.00275561      -0.00073758
Al      17.12582342      19.16778528      11.07315588      -0.00272677      -0.00199080       0.01866413
Al      19.19642537      17.15216342      11.07107978      -0.00866843       0.00096515       0.01631621
Al      19.17097604      19.17231597       9.05401405      -0.00987465      -0.00375026       0.00161138
Al      17.15000000      17.15000000      13.10000000      -0.01719406       0.01786723      -0.38349970
Al      17.15000000      19.17500000      15.12500000       0.00942463       0.04534724       0.70041587
Al      19.17500000      17.15000000      15.12500000       0.04285362       0.01152944       0.69923472
Al      19.17500000      19.17500000      13.10000000       0.07561286       0.09669874      -0.44452170
Al      17.15000000      21.20000000       5.00000000       0.00976375      -0.32900142      -0.64404978
Al      17.15000000      23.22500000       7.02500000       0.00909516       0.61659286       0.25681989
Al      19.17500000      21.20000000       7.02500000       0.04825851      -0.07657569       0.56168143
Al      19.17500000      23.22500000       5.00000000       0.03806743       0.19692925      -0.17474991
Al      17.14878052      21.25253393       9.07146222      -0.00712585       0.00252175      -0.00366337
Al      17.16022612      23.43066658      11.09003980      -0.00722928      -0.00385674      -0.00256163
Al      19.16287196      21.22735931      11.05746783      -0.00974729       0.00202070       0.01599985
Al      19.18101209      23.40379473       9.02746080      -0.00672388       0.00103445       0.00948178
Al      17.15000000      21.20000000      13.10000000      -0.01308802      -0.05330920      -0.55856525
Al      17.15000000      23.22500000      15.12500000       0.00707810       0.19791675       0.17338578
Al      19.17500000      21.20000000      15.12500000       0.03906564      -0.33260300       0.63978932
Al      19.17500000      23.22500000      13.10000000       0.02545449       0.59106839      -0.24493763
Al      21.20000000       5.00000000       5.00000000      -0.45427128      -0.09364295      -0.08558980
Al      21.20000000       7.02500000       7.02500000      -0.15009712       0.15009712       0.67297242
Al      23.22500000       5.00000000       7.02500000       0.04703305      -0.04703305       0.53015521
Al      23.22500000       7.02500000       5.00000000       0.09364295       0.45427128      -0.08558980
Al      21.17788048       4.87825373       9.04614243       0.00125119      -0.00402879       0.00288480
Al      21.19620684       7.02879316      11.04320903       0.00373350      -0.00373350       0.01577714
Al      23.24759768       4.97740232      11.07604230       0.01091824      -0.01091824      -0.02505304
Al      23.34674627       7.04711952       9.04614243       0.00402879      -0.00125119       0.00288480
Al      21.20000000       5.00000000      13.10000000      -0.24803709      -0.49459358      -0.38135862
Al      21.20000000       7.02500000      15.12500000      -0.32773935       0.32773935       0.58689491
Al      23.22500000       5.00000000      15.12500000      -0.32737517       0.32737517      -0.33300746
Al      23.22500000       7.02500000      13.10000000       0.49459358       0.24803709      -0.38135862
Al      21.20000000       9.05000000       5.00000000      -0.33026274      -0.04296888      -0.64187055
Al      21.20000000      11.07500000       7.02500000      -0.03541795       0.00233353       0.55005268
Al      23.22500000       9.05000000       7.02500000       0.60135347      -0.02959986       0.24087550
Al      23.22500000      11.07500000       5.00000000       0.20259436      -0.00952733      -0.17580425
Al      21.23370905       9.05631539       9.06802676       0.00208443       0.00348837      -0.00860873
Al      21.26082044      11.07061908      11.05332253       0.00140404       0.00329825       0.01601835
Al      23.41025813       9.04277964      11.09773116      -0.00036608       0.00291798      -0.00348551
Al      23.43069861      11.06591510       9.03379120      -0.00030502       0.00186736       0.00983527
Al      21.20000000       9.05000000      13.10000000      -0.07774327      -0.05154627      -0.55993133
Al      21.20000000      11.07500000      15.12500000      -0.33289087      -0.00826385       0.64174363
Al      23.22500000       9.05000000      15.12500000       0.19466264      -0.03726736       0.17365364
Al      23.22500000      11.07500000      13.10000000       0.62481920      -0.00550246      -0.24642976
Al      21.20000000      13.10000000       5.00000000      -0.32869208       0.00060146      -0.64428217
Al      21.20000000      15.12500000       7.02500000      -0.00201778      -0.00290503       0.54870051
Al      23.22500000      13.10000000       7.02500000       0.63669727      -0.00954802       0.26118649
Al      23.22500000      15.12500000       5.00000000       0.20520869      -0.00224860      -0.17574952
Al      21.26764756      13.09722610       9.07207914       0.00875959       0.00106715      -0.01130281
Al      21.26640670      15.12726067      11.05149175       0.00678211      -0.00360898       0.02151997
Al      23.43561198      13.09806787      11.09219385      -0.00388929       0.00181531      -0.00253626
Al      23.43577294      15.12754828       9.03219854      -0.00207192      -0.00431603       0.00948795
Al      21.20000000      13.10000000      13.10000000      -0.01006496       0.00386847      -0.55016611
Al      21.20000000      15.12500000      15.12500000      -0.33260438      -0.00106382       0.64215467
Al      23.22500000      13.10000000      15.12500000       0.20153006       0.00233940       0.17473112
Al      23.22500000      15.12500000      13.10000000       0.62914872       0.01001018      -0.26334301
Al      21.20000000      17.15000000       5.00000000      -0.32966541       0.00945439      -0.64365953
Al      21.20000000      19.17500000       7.02500000      -0.07400254       0.05614532       0.55902050
Al      23.22500000      17.15000000       7.02500000       0.63043662       0.00677840       0.24306702
Al      23.22500000      19.17500000       5.00000000       0.19765639       0.03857206      -0.17437601
Al      21.26113630      17.15497546       9.07006254       0.00255666      -0.00437544      -0.00559250
Al      21.23854900      19.17227895      11.05673751      -0.00097816      -0.00509307       0.01458525
Al      23.42966151      17.15920006      11.09063059      -0.00167042      -0.00455527      -0.00395688
Al      23.41172713      19.18246949       9.02627599       0.00147026      -0.00328904       0.00932523
Al      21.20000000      17.15000000      13.10000000      -0.02405219      -0.00308796      -0.53404122