299
Lattice="28.224999999999998 0.0 0.0 0.0 28.224999999999998 0.0 0.0 0.0 20.125" Properties=species:S:1:pos:R:3:forces:R:3 energy=-16469.307895592756 pbc="T T T"
Al       5.00000000       5.00000000       5.00000000       0.32628537       0.32659455       0.33240237
Al       5.00000000       7.02500000       7.02500000      -0.49712597       0.24873417       0.38646678
Al       7.02500000       5.00000000       7.02500000       0.24459327      -0.49706404       0.38126692
Al       7.02500000       7.02500000       5.00000000       0.32541045       0.32643338      -0.58777558
Al       4.97740456       4.97716208       9.04955983      -0.01246930      -0.01084615       0.02373845
Al       4.88302876       7.04829765      11.07819442      -0.00358920       0.00245100       0.00367607
Al       7.04663304       4.87390286      11.07885513      -0.00098216      -0.00253555       0.00249843
Al       7.02881998       7.02724058       9.08204285      -0.00633525      -0.00247173      -0.01139269
Al       5.00000000       5.00000000      13.10000000      -0.04758191      -0.04278911      -0.53076757
Al       5.00000000       7.02500000      15.12500000      -0.09179539       0.45657654       0.08576258
Al       7.02500000       5.00000000      15.12500000       0.45500519      -0.09220183       0.08510738
Al       7.02500000       7.02500000      13.10000000       0.15159957       0.15543201      -0.67461598
Al       5.00000000       9.05000000       5.00000000      -0.19656001      -0.03778754      -0.17464909
Al       5.00000000      11.07500000       7.02500000      -0.61559062      -0.00890592       0.25860132
Al       7.02500000       9.05000000       7.02500000       0.07694634      -0.04765492       0.56357890
Al       7.02500000      11.07500000       5.00000000       0.32923730      -0.00950587      -0.64381513
Al       4.82115690       9.04401347       9.02790326      -0.00071276       0.00698891       0.00465178
Al       4.79420812      11.06485072      11.08978941       0.00391665       0.00695208      -0.00005167
Al       6.99765340       9.06212730      11.05727989      -0.00261762       0.00999191       0.01864287
Al       6.97246706      11.07624405       9.07180608      -0.00262366       0.00722982      -0.00935863
Al       5.00000000       9.05000000      13.10000000      -0.59132254      -0.02522846      -0.24683794
Al       5.00000000      11.07500000      15.12500000      -0.19850040      -0.00710769       0.17364810
Al       7.02500000       9.05000000      15.12500000       0.33198357      -0.03912416       0.64031559
Al       7.02500000      11.07500000      13.10000000       0.05272810       0.01303648      -0.56100887
Al       5.00000000      13.10000000       5.00000000      -0.20488800       0.00163193      -0.17461881
Al       5.00000000      15.12500000       7.02500000      -0.64184047       0.00869978       0.26020049
Al       7.02500000      13.10000000       7.02500000       0.04170033       0.00293025       0.58855660
Al       7.02500000      15.12500000       5.00000000       0.32823026      -0.00231925      -0.64471153
Al       4.78667435      13.09675743       9.03177339       0.00424724       0.00334959       0.00713684
Al       4.78874861      15.12738908      11.09131097       0.00715637      -0.00445023       0.00226761
Al       6.95402190      13.09524844      11.05027383      -0.00645954       0.00444427       0.02651623
Al       6.95547514      15.12709853       9.07088726      -0.00789166      -0.00344870      -0.01336509
Al       5.00000000      13.10000000      13.10000000      -0.63200992      -0.00895031      -0.26379642
Al       5.00000000      15.12500000      15.12500000      -0.19997244      -0.00224970       0.17280024
Al       7.02500000      13.10000000      15.12500000       0.33109118       0.00244938       0.63994947
Al       7.02500000      15.12500000      13.10000000      -0.02126781      -0.00384386      -0.52948441
Al       5.00000000      17.15000000       5.00000000      -0.20339439       0.00791808      -0.17571965
Al       5.00000000      19.17500000       7.02500000      -0.59633836       0.02778497       0.24274180
Al       7.02500000      17.15000000       7.02500000       0.05462525      -0.00512124       0.57215229
Al       7.02500000      19.17500000       5.00000000       0.32990490       0.04173632      -0.64362111
Al       4.79270465      17.16034757       9.03342067       0.00224839      -0.00677496       0.00950466
Al       4.81300891      19.18359218      11.09744957       0.00321299      -0.00788182       0.00113426
Al       6.96042185      17.15659770      11.05252822       0.00056355      -0.00753531       0.02066019
Al       6.99497961      19.16648979       9.06860933      -0.00005798      -0.00844704      -0.00419469
Al       5.00000000      17.15000000      13.10000000      -0.62627744       0.00521869      -0.24507373
Al       5.00000000      19.17500000      15.12500000      -0.19326923       0.03634233       0.17239872
Al       7.02500000      17.15000000      15.12500000       0.33234816       0.00784595       0.63939653
Al       7.02500000      19.17500000      13.10000000       0.09140783       0.04532133      -0.56894953
Al       5.00000000      21.20000000       5.00000000      -0.09490064      -0.45420433      -0.08677750
Al       5.00000000      23.22500000       7.02500000      -0.04685496       0.04685496       0.53279798
Al       7.02500000      21.20000000       7.02500000       0.15619573      -0.15619573       0.67298152
Al       7.02500000      23.22500000       5.00000000       0.45420433       0.09490064      -0.08677750
Al       4.88128584      21.17647380       9.04585189      -0.00231556      -0.00139411       0.00411519
Al       4.98075613      23.24424387      11.07393849      -0.00907697       0.00907697      -0.01918138
Al       7.03431880      21.19068120      11.04410135      -0.00236603       0.00236603       0.01774488
Al       7.04852620      23.34371416       9.04585189       0.00139411       0.00231556       0.00411519
Al       5.00000000      21.20000000      13.10000000      -0.48734293      -0.24887097      -0.38187295
Al       5.00000000      23.22500000      15.12500000       0.32901238      -0.32901238      -0.33202112
Al       7.02500000      21.20000000      15.12500000       0.32863519      -0.32863519       0.58617860
Al       7.02500000      23.22500000      13.10000000       0.24887097       0.48734293      -0.38187295
Al       9.05000000       5.00000000       5.00000000      -0.03832269      -0.19723430      -0.17440042
Al       9.05000000       7.02500000       7.02500000      -0.05565746       0.07455649       0.56072310
Al      11.07500000       5.00000000       7.02500000      -0.00632212      -0.62949843       0.24458313
Al      11.07500000       7.02500000       5.00000000      -0.00909596       0.32999172      -0.64352769
Al       9.04261791       4.81328605       9.02672744       0.00325403      -0.00117803       0.00449179
Al       9.05280695       6.98646247      11.05656663       0.00476720       0.00070583       0.01705652
Al      11.06592431       4.79528401      11.09038528       0.00433796       0.00156361      -0.00151213
Al      11.07013099       6.96386387       9.07036454       0.00431066      -0.00248668      -0.01103046
Al       9.05000000       5.00000000      13.10000000      -0.02762522      -0.60449272      -0.23420809
Al       9.05000000       7.02500000      15.12500000      -0.04157644       0.33375369       0.64057227
Al      11.07500000       5.00000000      15.12500000      -0.00865025      -0.19987933       0.17554639
Al      11.07500000       7.02500000      13.10000000       0.00318421       0.02359090      -0.53606353
Al       9.05000000       9.05000000       5.00000000      -0.04432802      -0.04329266      -0.70404961
Al       9.05000000      11.07500000       7.02500000      -0.10613892       0.01918126       0.43207145
Al      11.07500000       9.05000000       7.02500000      -0.01230992      -0.10494283       0.42123363
Al      11.07500000      11.07500000       5.00000000      -0.01389167      -0.01332169      -0.70672111
Al       9.05275589       9.05401943       9.05436515       0.00366378       0.01042692      -0.00442687
Al       9.05724972      11.09915935      11.07294564       0.00167465       0.00281130       0.02096977
Al      11.07292425       9.02855634      11.07089250      -0.00125709       0.00891559       0.01840449
Al      11.08352012      11.08767791       9.06249942       0.00251414       0.01174376      -0.00728133
Al       9.05000000       9.05000000      13.10000000      -0.09691885      -0.07563342      -0.44706488
Al       9.05000000      11.07500000      15.12500000      -0.04577845      -0.00947717       0.70118009
Al      11.07500000       9.05000000      15.12500000      -0.01161275      -0.04313262       0.70006884
Al      11.07500000      11.07500000      13.10000000      -0.01804419       0.01698542      -0.38614585
Al       9.05000000      13.10000000       5.00000000      -0.04794557       0.00009169      -0.70774910
Al       9.05000000      15.12500000       7.02500000      -0.05641339      -0.00142332       0.48695359
Al      11.07500000      13.10000000       7.02500000       0.00291764       0.04102745       0.37935756
Al      11.07500000      15.12500000       5.00000000      -0.01245148       0.00001367      -0.70862423
Al       9.04093329      13.11118541       9.06160267       0.00608426       0.00253574      -0.00798265
Al       9.00494357      15.12502939      11.07429309       0.00557652       0.00156888       0.02400663
Al      11.14024474      13.17424793      11.08964591      -0.00255001      -0.00439451       0.03461048
Al      11.10739695      15.12554652       9.08573745       0.02636397       0.00190064       0.00111232
Al       9.05000000      13.10000000      13.10000000      -0.10708829       0.01905493      -0.43448475
Al       9.05000000      15.12500000      15.12500000      -0.04621077      -0.00077584       0.69794987
Al      11.07500000      13.10000000      15.12500000      -0.02423532      -0.00809807       0.71900143
Al      11.07500000      15.12500000      13.10000000       0.36000991       0.00843220      -0.49765253
Al       9.05000000      17.15000000       5.00000000      -0.04581525       0.01108942      -0.70710685
Al       9.05000000      19.17500000       7.02500000      -0.07212400       0.07212400       0.46646241
Al      11.07500000      17.15000000       7.02500000       0.01297852      -0.01297852       0.38647160
Al      11.07500000      19.17500000       5.00000000      -0.01108942       0.04581525      -0.70710685
Al       9.04838899      17.13876205       9.06173550       0.01137544      -0.00223504      -0.00225215
Al       9.07098031      19.15401969      11.07359074       0.00861900      -0.00861900       0.01640309
Al      11.14542938      17.07957062      11.08867769      -0.00455969       0.00455969       0.03381508
Al      11.08623795      19.17661101       9.06173550       0.00223504      -0.01137544      -0.00225215
Al       9.05000000      17.15000000      13.10000000      -0.08997413      -0.00654996      -0.43544478
Al       9.05000000      19.17500000      15.12500000      -0.04198453       0.04198453       0.70093864
Al      11.07500000      17.15000000      15.12500000      -0.02211196       0.02211196       0.71804950
Al      11.07500000      19.17500000      13.10000000       0.00654996       0.08997413      -0.43544478
Al       9.05000000      21.20000000       5.00000000      -0.04173632      -0.32990490      -0.64362111
Al       9.05000000      23.22500000       7.02500000      -0.02778497       0.59633836       0.24274180
Al      11.07500000      21.20000000       7.02500000       0.00512124      -0.05462525       0.57215229
Al      11.07500000      23.22500000       5.00000000      -0.00791808       0.20339439      -0.17571965
Al       9.05851021      21.23002039       9.06860933       0.00844704       0.00005798      -0.00419469
Al       9.04140782      23.41199109      11.09744957       0.00788182      -0.00321299       0.00113426
Al      11.06840230      21.26457815      11.05252822       0.00753531      -0.00056355       0.02066019
Al      11.06465243      23.43229535       9.03342067       0.00677496      -0.00224839       0.00950466
Al       9.05000000      21.20000000      13.10000000      -0.04532133      -0.09140783      -0.56894953
Al       9.05000000      23.22500000      15.12500000      -0.03634233       0.19326923       0.17239872
Al      11.07500000      21.20000000      15.12500000      -0.00784595      -0.33234816       0.63939653
Al      11.07500000      23.22500000      13.10000000      -0.00521869       0.62627744      -0.24507373
Al      13.10000000       5.00000000       5.00000000       0.00248845      -0.20463198      -0.17560676
Al      13.10000000       7.02500000       7.02500000       0.00332602       0.00252099       0.54998832
Al      15.12500000       5.00000000       7.02500000       0.00978262      -0.63562775       0.26246551
Al      15.12500000       7.02500000       5.00000000      -0.00054407       0.32902124      -0.64400115
Al      13.09753848       4.78919780       9.03260155       0.00430847       0.00255973       0.00471477
Al      13.09780495       6.95860306      11.05137733       0.00354840      -0.00722847       0.02330505
Al      15.12690560       4.78930172      11.09201645      -0.00151275       0.00387622      -0.00040585
Al      15.12777708       6.95736220       9.07238211      -0.00086952      -0.00890055      -0.01684291
Al      13.10000000       5.00000000      13.10000000      -0.00983118      -0.62953590      -0.26470196
Al      13.10000000       7.02500000      15.12500000       0.00115762       0.33197597       0.64277346
Al      15.12500000       5.00000000      15.12500000      -0.00223662      -0.20215969       0.17506167
Al      15.12500000       7.02500000      13.10000000      -0.00367290       0.00939513      -0.55201154
Al      13.10000000       9.05000000       5.00000000       0.00130303      -0.04777766      -0.70495659
Al      13.10000000      11.07500000       7.02500000      -0.00616130       0.05728344       0.42920372
Al      15.12500000       9.05000000       7.02500000      -0.00041141      -0.12159458       0.41984443
Al      15.12500000      11.07500000       5.00000000       0.00130372      -0.01501171      -0.70736906
Al      13.09980941       9.02239759       9.05095546      -0.00012823       0.00353628      -0.01275961
Al      13.10031468      11.04644183      11.07554505      -0.00093090       0.01341590       0.02181074
Al      15.12758792       9.02093015      11.07083816       0.00068322       0.00416485       0.02128946
Al      15.11276289      11.08324839       9.06138151      -0.00179309       0.01459127      -0.00975936
Al      13.10000000       9.05000000      13.10000000       0.00087518      -0.18525335      -0.36118914
Al      13.10000000      11.07500000      15.12500000      -0.00129472      -0.01223655       0.69836362
Al      15.12500000       9.05000000      15.12500000      -0.00182290      -0.04537906       0.70169001
Al      15.12500000      11.07500000      13.10000000      -0.01308899       0.00675321      -0.37481368
Al      13.10000000      13.10000000       5.00000000      -0.00044729       0.00145548      -0.70977131
Al      13.10000000      15.12500000       7.02500000      -0.00963199       0.00963199       0.09377145
Al      15.12500000      13.10000000       7.02500000      -0.03988423       0.03988423       0.36992157
Al      15.12500000      15.12500000       5.00000000      -0.00145548       0.00044729      -0.70977131
Al      13.09804112      13.14159628       9.08682853      -0.00034842       0.02375921      -0.00153400
Al      15.05037181      13.17462819      11.09023681       0.00461775      -0.00461775       0.03464008
Al      15.08340372      15.12695888       9.08682853      -0.02375921       0.00034842      -0.00153400
Al      13.10000000      13.10000000      13.10000000      -0.01759169       0.39094483      -0.48307615
Al      13.10000000      15.12500000      15.12500000      -0.00131450       0.00131450       0.85820076
Al      15.12500000      13.10000000      15.12500000       0.00816497      -0.00816497       0.72043851
Al      15.12500000      15.12500000      13.10000000      -0.39094483       0.01759169      -0.48307615
Al      13.10000000      17.15000000       5.00000000      -0.00001367       0.01245148      -0.70862423
Al      13.10000000      19.17500000       7.02500000       0.00142332       0.05641339       0.48695359
Al      15.12500000      17.15000000       7.02500000      -0.04102745      -0.00291764       0.37935756
Al      15.12500000      19.17500000       5.00000000      -0.00009169       0.04794557      -0.70774910
Al      13.09945348      17.11760305       9.08573745      -0.00190064      -0.02636397       0.00111232
Al      13.09997061      19.22005643      11.07429309      -0.00156888      -0.00557652       0.02400663
Al      15.05075207      17.08475526      11.08964591       0.00439451       0.00255001       0.03461048
Al      15.11381459      19.18406671       9.06160267      -0.00253574      -0.00608426      -0.00798265
Al      13.10000000      17.15000000      13.10000000      -0.00843220      -0.36000991      -0.49765253
Al      13.10000000      19.17500000      15.12500000       0.00077584       0.04621077       0.69794987
Al      15.12500000      17.15000000      15.12500000       0.00809807       0.02423532       0.71900143
Al      15.12500000      19.17500000      13.10000000      -0.01905493       0.10708829      -0.43448475
Al      13.10000000      21.20000000       5.00000000       0.00231925      -0.32823026      -0.64471153
Al      13.10000000      23.22500000       7.02500000      -0.00869978       0.64184047       0.26020049
Al      15.12500000      21.20000000       7.02500000      -0.00293025      -0.04170033       0.58855660
Al      15.12500000      23.22500000       5.00000000      -0.00163193       0.20488800      -0.17461881
Al      13.09790147      21.26952486       9.07088726       0.00344870       0.00789166      -0.01336509
Al      13.09761092      23.43625139      11.09131097       0.00445023      -0.00715637       0.00226761
Al      15.12975156      21.27097810      11.05027383      -0.00444427       0.00645954       0.02651623
Al      15.12824257      23.43832565       9.03177339      -0.00334959      -0.00424724       0.00713684
Al      13.10000000      21.20000000      13.10000000       0.00384386       0.02126781      -0.52948441
Al      13.10000000      23.22500000      15.12500000       0.00224970       0.19997244       0.17280024
Al      15.12500000      21.20000000      15.12500000      -0.00244938      -0.33109118       0.63994947
Al      15.12500000      23.22500000      13.10000000       0.00895031       0.63200992      -0.26379642
Al      17.15000000       5.00000000       5.00000000       0.00947284      -0.20203973      -0.17561624
Al      17.15000000       7.02500000       7.02500000      -0.00237827       0.03592773       0.55171328
Al      19.17500000       5.00000000       7.02500000       0.02923081      -0.60028071       0.24267920
Al      19.17500000       7.02500000       5.00000000       0.04279819       0.33049473      -0.64160840
Al      17.15900749       4.79430706       9.03424521      -0.00154649       0.00070609       0.00488263
Al      17.15433417       6.96421511      11.05317461      -0.00293210      -0.00206559       0.01818970
Al      19.18217863       4.81471679      11.09746560      -0.00273936       0.00024080      -0.00086290
Al      19.16862567       6.99133327       9.06835488      -0.00336023      -0.00235075      -0.01431652
Al      17.15000000       5.00000000      13.10000000       0.00574805      -0.62512335      -0.24821209
Al      17.15000000       7.02500000      15.12500000       0.00841743       0.33217526       0.64235912
Al      19.17500000       5.00000000      15.12500000       0.03751622      -0.19522492       0.17393941
Al      19.17500000       7.02500000      13.10000000       0.05175218       0.07725120      -0.56214902
Al      17.15000000       9.05000000       5.00000000       0.01258311      -0.04640894      -0.70399685
Al      17.15000000      11.07500000       7.02500000       0.00032877      -0.00032877       0.38122340
Al      19.17500000       9.05000000       7.02500000       0.09306580      -0.09306580       0.44302372
Al      19.17500000      11.07500000       5.00000000       0.04640894      -0.01258311      -0.70399685
Al      17.14379650       9.04072129       9.05489785       0.00250585       0.00375571      -0.01043626
Al      17.12809324      11.09690676      11.07298823      -0.00272506       0.00272506       0.02137669
Al      19.16844242       9.05655758      11.07185467      -0.00430030       0.00430030       0.01449342
Al      19.18427871      11.08120350       9.05489785      -0.00375571      -0.00250585      -0.01043626
Al      17.15000000       9.05000000      13.10000000       0.00370188      -0.10972003      -0.41081245
Al      17.15000000      11.07500000      15.12500000       0.01207963      -0.01207963       0.70230499
Al      19.17500000       9.05000000      15.12500000       0.04207733      -0.04207733       0.70264974
Al      19.17500000      11.07500000      13.10000000       0.10972003      -0.00370188      -0.41081245
Al      17.15000000      13.10000000       5.00000000       0.01501171      -0.00130372      -0.70736906
Al      17.15000000      15.12500000       7.02500000      -0.05728344       0.00616130       0.42920372
Al      19.17500000      13.10000000       7.02500000       0.12159458       0.00041141       0.41984443
Al      19.17500000      15.12500000       5.00000000       0.04777766      -0.00130303      -0.70495659
Al      17.14175161      13.11223711       9.06138151      -0.01459127       0.00179309      -0.00975936
Al      17.17855817      15.12468532      11.07554505      -0.01341590       0.00093090       0.02181074
Al      19.20406985      13.09741208      11.07083816      -0.00416485      -0.00068322       0.02128946
Al      19.20260241      15.12519059       9.05095546      -0.00353628       0.00012823      -0.01275961
Al      17.15000000      13.10000000      13.10000000      -0.00675321       0.01308899      -0.37481368
Al      17.15000000      15.12500000      15.12500000       0.01223655       0.00129472       0.69836362
Al      19.17500000      13.10000000      15.12500000       0.04537906       0.00182290       0.70169001
Al      19.17500000      15.12500000      13.10000000       0.18525335      -0.00087518      -0.36118914
Al      17.15000000      17.15000000       5.00000000       0.01332169       0.01389167      -0.70672111
Al      17.15000000      19.17500000       7.02500000      -0.01918126       0.10613892       0.43207145
Al      19.17500000      17.15000000       7.02500000       0.10494283       0.01230992       0.42123363
Al      19.17500000      19.17500000       5.00000000       0.04329266       0.04432802      -0.70404961
Al      17.13732209      17.14147988       9.06249942      -0.01174376      -0.00251414      -0.00728133
Al      17.12584065      19.16775028      11.07294564      -0.00281130      -0.00167465       0.02096977
Al      19.19644366      17.15207575      11.07089250      -0.00891559       0.00125709       0.01840449
Al      19.17098057      19.17224411       9.05436515      -0.01042692      -0.00366378      -0.00442687
Al      17.15000000      17.15000000      13.10000000      -0.01698542       0.01804419      -0.38614585
Al      17.15000000      19.17500000      15.12500000       0.00947717       0.04577845       0.70118009
Al      19.17500000      17.15000000      15.12500000       0.04313262       0.01161275       0.70006884
Al      19.17500000      19.17500000      13.10000000       0.07563342       0.09691885      -0.44706488
Al      17.15000000      21.20000000       5.00000000       0.00950587      -0.32923730      -0.64381513
Al      17.15000000      23.22500000       7.02500000       0.00890592       0.61559062       0.25860132
Al      19.17500000      21.20000000       7.02500000       0.04765492      -0.07694634       0.56357890
Al      19.17500000      23.22500000       5.00000000       0.03778754       0.19656001      -0.17464909
Al      17.14875595      21.25253294       9.07180608      -0.00722982       0.00262366      -0.00935863
Al      17.16014928      23.43079188      11.08978941      -0.00695208      -0.00391665      -0.00005167
Al      19.16287270      21.22734660      11.05727989      -0.00999191       0.00261762       0.01864287
Al      19.18098653      23.40384310       9.02790326      -0.00698891       0.00071276       0.00465178
Al      17.15000000      21.20000000      13.10000000      -0.01303648      -0.05272810      -0.56100887
Al      17.15000000      23.22500000      15.12500000       0.00710769       0.19850040       0.17364810
Al      19.17500000      21.20000000      15.12500000       0.03912416      -0.33198357       0.64031559
Al      19.17500000      23.22500000      13.10000000       0.02522846       0.59132254      -0.24683794
Al      21.20000000       5.00000000       5.00000000      -0.45444431      -0.09320505      -0.08539146
Al      21.20000000       7.02500000       7.02500000      -0.15050021       0.15050021       0.67477468
Al      23.22500000       5.00000000       7.02500000       0.04599138      -0.04599138       0.53116753
Al      23.22500000       7.02500000       5.00000000       0.09320505       0.45444431      -0.08539146
Al      21.17785020       4.87825855       9.04652174       0.00098119      -0.00360512      -0.00176155
Al      21.19614274       7.02885726      11.04304747       0.00432723      -0.00432723       0.01816668
Al      23.24754972       4.97745028      11.07565053       0.01092679      -0.01092679      -0.02257060
Al      23.34674145       7.04714980       9.04652174       0.00360512      -0.00098119      -0.00176155
Al      21.20000000       5.00000000      13.10000000      -0.24777540      -0.49466885      -0.38322767
Al      21.20000000       7.02500000      15.12500000      -0.32723066       0.32723066       0.58727666
Al      23.22500000       5.00000000      15.12500000      -0.32724972       0.32724972      -0.33279915
Al      23.22500000       7.02500000      13.10000000       0.49466885       0.24777540      -0.38322767
Al      21.20000000       9.05000000       5.00000000      -0.33049473      -0.04279819      -0.64160840
Al      21.20000000      11.07500000       7.02500000      -0.03592773       0.00237827       0.55171328
Al      23.22500000       9.05000000       7.02500000       0.60028071      -0.02923081       0.24267920
Al      23.22500000      11.07500000       5.00000000       0.20203973      -0.00947284      -0.17561624
Al      21.23366673       9.05637433       9.06835488       0.00235075       0.00336023      -0.01431652
Al      21.26078489      11.07066583      11.05317461       0.00206559       0.00293210       0.01818970
Al      23.41028321       9.04282137      11.09746560      -0.00024080       0.00273936      -0.00086290
Al      23.43069294      11.06599251       9.03424521      -0.00070609       0.00154649       0.00488263
Al      21.20000000       9.05000000      13.10000000      -0.07725120      -0.05175218      -0.56214902
Al      21.20000000      11.07500000      15.12500000      -0.33217526      -0.00841743       0.64235912
Al      23.22500000       9.05000000      15.12500000       0.19522492      -0.03751622       0.17393941
Al      23.22500000      11.07500000      13.10000000       0.62512335      -0.00574805      -0.24821209
Al      21.20000000      13.10000000       5.00000000      -0.32902124       0.00054407      -0.64400115
Al      21.20000000      15.12500000       7.02500000      -0.00252099      -0.00332602       0.54998832
Al      23.22500000      13.10000000       7.02500000       0.63562775      -0.00978262       0.26246551
Al      23.22500000      15.12500000       5.00000000       0.20463198      -0.00248845      -0.17560676
Al      21.26763780      13.09722292       9.07238211       0.00890055       0.00086952      -0.01684291
Al      21.26639694      15.12719505      11.05137733       0.00722847      -0.00354840       0.02330505
Al      23.43569828      13.09809440      11.09201645      -0.00387622       0.00151275      -0.00040585
Al      23.43580220      15.12746152       9.03260155      -0.00255973      -0.00430847       0.00471477
Al      21.20000000      13.10000000      13.10000000      -0.00939513       0.00367290      -0.55201154
Al      21.20000000      15.12500000      15.12500000      -0.33197597      -0.00115762       0.64277346
Al      23.22500000      13.10000000      15.12500000       0.20215969       0.00223662       0.17506167
Al      23.22500000      15.12500000      13.10000000       0.62953590       0.00983118      -0.26470196
Al      21.20000000      17.15000000       5.00000000      -0.32999172       0.00909596      -0.64352769
Al      21.20000000      19.17500000       7.02500000      -0.07455649       0.05565746       0.56072310
Al      23.22500000      17.15000000       7.02500000       0.62949843       0.00632212       0.24458313
Al      23.22500000      19.17500000       5.00000000       0.19723430       0.03832269      -0.17440042
Al      21.26113613      17.15486901       9.07036454       0.00248668      -0.00431066      -0.01103046
Al      21.23853753      19.17219305      11.05656663      -0.00070583      -0.00476720       0.01705652
Al      23.42971599      17.15907569      11.09038528      -0.00156361      -0.00433796      -0.00151213
Al      23.41171395      19.18238209       9.02672744       0.00117803      -0.00325403       0.00449179
Al      21.20000000      17.15000000      13.10000000      -0.02359090      -0.00318421      -0.53606353