299
Lattice="28.224999999999998 0.0 0.0 0.0 28.224999999999998 0.0 0.0 0.0 20.125" Properties=species:S:1:pos:R:3:forces:R:3 energy=-16469.30664061162 pbc="T T T"
Al       5.00000000       5.00000000       5.00000000       0.32659203       0.32704300       0.33340944
Al       5.00000000       7.02500000       7.02500000      -0.49800462       0.24800007       0.37280886
Al       7.02500000       5.00000000       7.02500000       0.24381546      -0.49784691       0.36742017
Al       7.02500000       7.02500000       5.00000000       0.32437475       0.32554161      -0.58413418
Al       4.97741163       4.97711170       9.04721771      -0.01025748      -0.00839167       0.04807805
Al       4.88298106       7.04820553      11.08046360      -0.00312286       0.00230306      -0.02614305
Al       7.04658322       4.87380972      11.08112535      -0.00132153      -0.00195829      -0.02694743
Al       7.02871660       7.02708854       9.07985502      -0.00475533      -0.00053875       0.02158174
Al       5.00000000       5.00000000      13.10000000      -0.05119221      -0.04632135      -0.52130081
Al       5.00000000       7.02500000      15.12500000      -0.09210253       0.45611678       0.08333587
Al       7.02500000       5.00000000      15.12500000       0.45464959      -0.09239172       0.08266354
Al       7.02500000       7.02500000      13.10000000       0.15087009       0.15448834      -0.66033911
Al       5.00000000       9.05000000       5.00000000      -0.19725578      -0.03779373      -0.17226241
Al       5.00000000      11.07500000       7.02500000      -0.61643314      -0.00856770       0.24368063
Al       7.02500000       9.05000000       7.02500000       0.07584802      -0.04770716       0.54910846
Al       7.02500000      11.07500000       5.00000000       0.32916554      -0.00854082      -0.63974838
Al       4.82104965       9.04398527       9.02557463      -0.00071358       0.00630994       0.03494683
Al       4.79406899      11.06491168      11.09211841       0.00430530       0.00669001      -0.02960076
Al       6.99753071       9.06205627      11.05950072      -0.00047009       0.01034550      -0.01540448
Al       6.97230010      11.07626966       9.06951820      -0.00002703       0.00775734       0.02534502
Al       5.00000000       9.05000000      13.10000000      -0.59223536      -0.02568716      -0.23245277
Al       5.00000000      11.07500000      15.12500000      -0.19887932      -0.00696997       0.17116916
Al       7.02500000       9.05000000      15.12500000       0.33139539      -0.03912690       0.63645626
Al       7.02500000      11.07500000      13.10000000       0.05231935       0.01368655      -0.54613509
Al       5.00000000      13.10000000       5.00000000      -0.20478894       0.00197498      -0.17192020
Al       5.00000000      15.12500000       7.02500000      -0.64241285       0.00903060       0.24437538
Al       7.02500000      13.10000000       7.02500000       0.04141853       0.00355943       0.57283627
Al       7.02500000      15.12500000       5.00000000       0.32861100      -0.00249738      -0.64021619
Al       4.78653821      13.09685245       9.02936167       0.00472594       0.00301913       0.03668942
Al       4.78861588      15.12740331      11.09367861       0.00766319      -0.00442937      -0.02729427
Al       6.95376163      13.09531596      11.05256863      -0.00202031       0.00442386      -0.00824520
Al       6.95521625      15.12714211       9.06852001      -0.00324690      -0.00367438       0.02193247
Al       5.00000000      13.10000000      13.10000000      -0.63270445      -0.00880341      -0.24835779
Al       5.00000000      15.12500000      15.12500000      -0.19993880      -0.00241870       0.17022112
Al       7.02500000      13.10000000      15.12500000       0.33179942       0.00292621       0.63565148
Al       7.02500000      15.12500000      13.10000000      -0.02130988      -0.00383496      -0.51396079
Al       5.00000000      17.15000000       5.00000000      -0.20337212       0.00767891      -0.17303211
Al       5.00000000      19.17500000       7.02500000      -0.59686413       0.02815080       0.22803648
Al       7.02500000      17.15000000       7.02500000       0.05418942      -0.00529409       0.55685248
Al       7.02500000      19.17500000       5.00000000       0.32949654       0.04153022      -0.63947315
Al       4.79258885      17.16037191       9.03106964       0.00264683      -0.00687567       0.03879945
Al       4.81293292      19.18367431      11.09974857       0.00314464      -0.00744585      -0.02870195
Al       6.96022927      17.15665996      11.05474414       0.00394371      -0.00808864      -0.01348334
Al       6.99482527      19.16660506       9.06636249       0.00239989      -0.00906930       0.02943831
Al       5.00000000      17.15000000      13.10000000      -0.62693052       0.00531561      -0.23030017
Al       5.00000000      19.17500000      15.12500000      -0.19374222       0.03648096       0.16993711
Al       7.02500000      17.15000000      15.12500000       0.33272011       0.00708397       0.63524921
Al       7.02500000      19.17500000      13.10000000       0.09081172       0.04552461      -0.55469681
Al       5.00000000      21.20000000       5.00000000      -0.09491348      -0.45395725      -0.08431482
Al       5.00000000      23.22500000       7.02500000      -0.05031968       0.05031968       0.52348839
Al       7.02500000      21.20000000       7.02500000       0.15566626      -0.15566626       0.65838403
Al       7.02500000      23.22500000       5.00000000       0.45395725       0.09491348      -0.08431482
Al       4.88127134      21.17654066       9.04358468      -0.00221116      -0.00120962       0.03355628
Al       4.98079353      23.24420647      11.07625118      -0.00703349       0.00703349      -0.04343029
Al       7.03416886      21.19083114      11.04626383       0.00005577      -0.00005577      -0.01476500
Al       7.04845934      23.34372866       9.04358468       0.00120962       0.00221116       0.03355628
Al       5.00000000      21.20000000      13.10000000      -0.48785406      -0.24818415      -0.36801617
Al       5.00000000      23.22500000      15.12500000       0.32952037      -0.32952037      -0.33310522
Al       7.02500000      21.20000000      15.12500000       0.32775602      -0.32775602       0.58233632
Al       7.02500000      23.22500000      13.10000000       0.24818415       0.48785406      -0.36801617
Al       9.05000000       5.00000000       5.00000000      -0.03840071      -0.19788541      -0.17208428
Al       9.05000000       7.02500000       7.02500000      -0.05585388       0.07352605       0.54617453
Al      11.07500000       5.00000000       7.02500000      -0.00606163      -0.63047095       0.22956205
Al      11.07500000       7.02500000       5.00000000      -0.00819301       0.32996698      -0.63959601
Al       9.04258786       4.81316744       9.02440160       0.00268675      -0.00124494       0.03462679
Al       9.05275922       6.98629406      11.05877804       0.00489448       0.00312228      -0.01649477
Al      11.06594111       4.79516947      11.09271712       0.00468531       0.00174205      -0.03055951
Al      11.07012766       6.96368171       9.06809081       0.00492169       0.00054016       0.02374391
Al       9.05000000       5.00000000      13.10000000      -0.02776926      -0.60530477      -0.21945518
Al       9.05000000       7.02500000      15.12500000      -0.04125595       0.33303821       0.63663707
Al      11.07500000       5.00000000      15.12500000      -0.00803322      -0.20001341       0.17289314
Al      11.07500000       7.02500000      13.10000000       0.00414843       0.02281226      -0.52064293
Al       9.05000000       9.05000000       5.00000000      -0.04346623      -0.04225086      -0.70000224
Al       9.05000000      11.07500000       7.02500000      -0.10511473       0.02072922       0.41619679
Al      11.07500000       9.05000000       7.02500000      -0.01115309      -0.10375878       0.40527312
Al      11.07500000      11.07500000       5.00000000      -0.01208699      -0.01136840      -0.70134411
Al       9.05269934       9.05394594       9.05207033       0.00463694       0.01137941       0.03062894
Al       9.05717130      11.09911502      11.07523508       0.00402824       0.00502256      -0.01430931
Al      11.07287521       9.02846431      11.07317644       0.00064215       0.01105245      -0.01621418
Al      11.08350325      11.08769263       9.06013479       0.00448903       0.01280528       0.02804813
Al       9.05000000       9.05000000      13.10000000      -0.09640332      -0.07536789      -0.43191378
Al       9.05000000      11.07500000      15.12500000      -0.04368920      -0.00796207       0.69648816
Al      11.07500000       9.05000000      15.12500000      -0.00977774      -0.04140364       0.69531133
Al      11.07500000      11.07500000      13.10000000      -0.01556673       0.01929635      -0.36954527
Al       9.05000000      13.10000000       5.00000000      -0.04609533       0.00088782      -0.70265442
Al       9.05000000      15.12500000       7.02500000      -0.05447308      -0.00149149       0.47119770
Al      11.07500000      13.10000000       7.02500000       0.00555757       0.04265942       0.36276440
Al      11.07500000      15.12500000       5.00000000      -0.01045117      -0.00054785      -0.70251269
Al       9.04083007      13.11119945       9.05922994       0.00771692       0.00352878       0.02769115
Al       9.00482837      15.12510101      11.07659638       0.00823353       0.00073072      -0.01179210
Al      11.14028961      13.17425474      11.09200356       0.00148566      -0.00086282      -0.00380100
Al      11.10747347      15.12559526       9.08337053       0.02148609       0.00087904       0.03370218
Al       9.05000000      13.10000000      13.10000000      -0.10487439       0.02002409      -0.41866986
Al       9.05000000      15.12500000      15.12500000      -0.04350646      -0.00130547       0.69265671
Al      11.07500000      13.10000000      15.12500000      -0.02158037      -0.00721934       0.71294786
Al      11.07500000      15.12500000      13.10000000       0.36525368       0.00776755      -0.48189492
Al       9.05000000      17.15000000       5.00000000      -0.04436560       0.01001153      -0.70222734
Al       9.05000000      19.17500000       7.02500000      -0.07195003       0.07195003       0.45106775
Al      11.07500000      17.15000000       7.02500000       0.01493574      -0.01493574       0.37017504
Al      11.07500000      19.17500000       5.00000000      -0.01001153       0.04436560      -0.70222734
Al       9.04828705      17.13888641       9.05940688       0.01246522      -0.00422111       0.03240828
Al       9.07087575      19.15412425      11.07582287       0.01021929      -0.01021929      -0.01824516
Al      11.14537264      17.07962736      11.09101065      -0.00036247       0.00036247      -0.00439391
Al      11.08611359      19.17671295       9.05940688       0.00422111      -0.01246522       0.03240828
Al       9.05000000      17.15000000      13.10000000      -0.08839580      -0.00772490      -0.41989520
Al       9.05000000      19.17500000      15.12500000      -0.04076580       0.04076580       0.69661300
Al      11.07500000      17.15000000      15.12500000      -0.02004410       0.02004410       0.71249181
Al      11.07500000      19.17500000      13.10000000       0.00772490       0.08839580      -0.41989520
Al       9.05000000      21.20000000       5.00000000      -0.04153022      -0.32949654      -0.63947315
Al       9.05000000      23.22500000       7.02500000      -0.02815080       0.59686413       0.22803648
Al      11.07500000      21.20000000       7.02500000       0.00529409      -0.05418942       0.55685248
Al      11.07500000      23.22500000       5.00000000      -0.00767891       0.20337212      -0.17303211
Al       9.05839494      21.23017473       9.06636249       0.00906930      -0.00239989       0.02943831
Al       9.04132569      23.41206708      11.09974857       0.00744585      -0.00314464      -0.02870195
Al      11.06834004      21.26477073      11.05474414       0.00808864      -0.00394371      -0.01348334
Al      11.06462809      23.43241115       9.03106964       0.00687567      -0.00264683       0.03879945
Al       9.05000000      21.20000000      13.10000000      -0.04552461      -0.09081172      -0.55469681
Al       9.05000000      23.22500000      15.12500000      -0.03648096       0.19374222       0.16993711
Al      11.07500000      21.20000000      15.12500000      -0.00708397      -0.33272011       0.63524921
Al      11.07500000      23.22500000      13.10000000      -0.00531561       0.62693052      -0.23030017
Al      13.10000000       5.00000000       5.00000000       0.00301426      -0.20468640      -0.17300074
Al      13.10000000       7.02500000       7.02500000       0.00390911       0.00195228       0.53414324
Al      15.12500000       5.00000000       7.02500000       0.01015720      -0.63625607       0.24708095
Al      15.12500000       7.02500000       5.00000000      -0.00040923       0.32928655      -0.63958018
Al      13.09751378       4.78908630       9.03020052       0.00496016       0.00260793       0.03451861
Al      13.09777182       6.95834744      11.05368910       0.00465355      -0.00290661      -0.01080326
Al      15.12674401       4.78917968      11.09441023      -0.00000790       0.00455532      -0.02946438
Al      15.12762715       6.95712221       9.07003522       0.00071289      -0.00479287       0.01887833
Al      13.10000000       5.00000000      13.10000000      -0.00932097      -0.62984620      -0.24883066
Al      13.10000000       7.02500000      15.12500000       0.00227688       0.33235517       0.63817120
Al      15.12500000       5.00000000      15.12500000      -0.00167171      -0.20162397       0.17193963
Al      15.12500000       7.02500000      13.10000000      -0.00306814       0.00909259      -0.53611270
Al      13.10000000       9.05000000       5.00000000       0.00214715      -0.04582276      -0.69997087
Al      13.10000000      11.07500000       7.02500000      -0.00525361       0.06025065       0.41251223
Al      15.12500000       9.05000000       7.02500000      -0.00048671      -0.12018566       0.40392542
Al      15.12500000      11.07500000       5.00000000       0.00081213      -0.01302289      -0.70138046
Al      13.09975287       9.02230276       9.04855981       0.00132356       0.00636543       0.02422200
Al      13.10029815      11.04652391      11.07787144       0.00045519       0.01464666      -0.01312973
Al      15.12750585       9.02085209      11.07317640       0.00149799       0.00649577      -0.01387749
Al      15.11270588      11.08337236       9.05898333      -0.00199968       0.01446671       0.02621707
Al      13.10000000       9.05000000      13.10000000       0.00211667      -0.18375902      -0.34474197
Al      13.10000000      11.07500000      15.12500000       0.00009894      -0.00973098       0.69195641
Al      15.12500000       9.05000000      15.12500000      -0.00160688      -0.04336873       0.69606005
Al      15.12500000      11.07500000      13.10000000      -0.01349537       0.00919114      -0.35759725
Al      13.10000000      13.10000000       5.00000000       0.00043000       0.00243040      -0.70311169
Al      13.10000000      15.12500000       7.02500000      -0.00877042       0.00877042       0.07628313
Al      15.12500000      13.10000000       7.02500000      -0.04145248       0.04145248       0.35262797
Al      15.12500000      15.12500000       5.00000000      -0.00243040      -0.00043000      -0.70311169
Al      13.09805527      13.14168011       9.08444806       0.00047932       0.01840817       0.03075742
Al      15.05032875      13.17467125      11.09259727       0.00160696      -0.00160696      -0.00292035
Al      15.08331989      15.12694473       9.08444806      -0.01840817      -0.00047932       0.03075742
Al      13.10000000      13.10000000      13.10000000      -0.01612481       0.39464847      -0.46635498
Al      13.10000000      15.12500000      15.12500000      -0.00020363       0.00020363       0.85208928
Al      15.12500000      13.10000000      15.12500000       0.00757128      -0.00757128       0.71349330
Al      15.12500000      15.12500000      13.10000000      -0.39464847       0.01612481      -0.46635498
Al      13.10000000      17.15000000       5.00000000       0.00054785       0.01045117      -0.70251269
Al      13.10000000      19.17500000       7.02500000       0.00149149       0.05447308       0.47119770
Al      15.12500000      17.15000000       7.02500000      -0.04265942      -0.00555757       0.36276440
Al      15.12500000      19.17500000       5.00000000      -0.00088782       0.04609533      -0.70265442
Al      13.09940474      17.11752653       9.08337053      -0.00087904      -0.02148609       0.03370218
Al      13.09989899      19.22017163      11.07659638      -0.00073072      -0.00823353      -0.01179210
Al      15.05074526      17.08471039      11.09200356       0.00086282      -0.00148566      -0.00380100
Al      15.11380055      19.18416993       9.05922994      -0.00352878      -0.00771692       0.02769115
Al      13.10000000      17.15000000      13.10000000      -0.00776755      -0.36525368      -0.48189492
Al      13.10000000      19.17500000      15.12500000       0.00130547       0.04350646       0.69265671
Al      15.12500000      17.15000000      15.12500000       0.00721934       0.02158037       0.71294786
Al      15.12500000      19.17500000      13.10000000      -0.02002409       0.10487439      -0.41866986
Al      13.10000000      21.20000000       5.00000000       0.00249738      -0.32861100      -0.64021619
Al      13.10000000      23.22500000       7.02500000      -0.00903060       0.64241285       0.24437538
Al      15.12500000      21.20000000       7.02500000      -0.00355943      -0.04141853       0.57283627
Al      15.12500000      23.22500000       5.00000000      -0.00197498       0.20478894      -0.17192020
Al      13.09785789      21.26978375       9.06852001       0.00367438       0.00324690       0.02193247
Al      13.09759669      23.43638412      11.09367861       0.00442937      -0.00766319      -0.02729427
Al      15.12968404      21.27123837      11.05256863      -0.00442386       0.00202031      -0.00824520
Al      15.12814755      23.43846179       9.02936167      -0.00301913      -0.00472594       0.03668942
Al      13.10000000      21.20000000      13.10000000       0.00383496       0.02130988      -0.51396079
Al      13.10000000      23.22500000      15.12500000       0.00241870       0.19993880       0.17022112
Al      15.12500000      21.20000000      15.12500000      -0.00292621      -0.33179942       0.63565148
Al      15.12500000      23.22500000      13.10000000       0.00880341       0.63270445      -0.24835779
Al      17.15000000       5.00000000       5.00000000       0.00969441      -0.20214390      -0.17278517
Al      17.15000000       7.02500000       7.02500000      -0.00235527       0.03508480       0.53728698
Al      19.17500000       5.00000000       7.02500000       0.02978182      -0.60063374       0.22910891
Al      19.17500000       7.02500000       5.00000000       0.04306131       0.32980714      -0.63719350
Al      17.15883962       4.79411797       9.03189959      -0.00013313       0.00187298       0.03516756
Al      17.15418971       6.96405105      11.05544077      -0.00133960       0.00082624      -0.01585089
Al      19.18212764       4.81451058      11.09979591      -0.00132008       0.00209968      -0.03067004
Al      19.16858465       6.99120863       9.06612394      -0.00220096      -0.00034861       0.02131624
Al      17.15000000       5.00000000      13.10000000       0.00620499      -0.62492030      -0.23336163
Al      17.15000000       7.02500000      15.12500000       0.00856261       0.33226742       0.63733045
Al      19.17500000       5.00000000      15.12500000       0.03794678      -0.19472705       0.17052146
Al      19.17500000       7.02500000      13.10000000       0.05241108       0.07647178      -0.54818597
Al      17.15000000       9.05000000       5.00000000       0.01180274      -0.04513155      -0.69909924
Al      17.15000000      11.07500000       7.02500000      -0.00126305       0.00126305       0.36491579
Al      19.17500000       9.05000000       7.02500000       0.09331611      -0.09331611       0.42876369
Al      19.17500000      11.07500000       5.00000000       0.04513155      -0.01180274      -0.69909924
Al      17.14373359       9.04069563       9.05254881       0.00230560       0.00467829       0.02625406
Al      17.12801286      11.09698714      11.07532312      -0.00379392       0.00379392      -0.01367764
Al      19.16842671       9.05657329      11.07414366      -0.00424212       0.00424212      -0.02018088
Al      19.18430437      11.08126641       9.05254881      -0.00467829      -0.00230560       0.02625406
Al      17.15000000       9.05000000      13.10000000       0.00326726      -0.10890804      -0.39505769
Al      17.15000000      11.07500000      15.12500000       0.01058296      -0.01058296       0.69611748
Al      19.17500000       9.05000000      15.12500000       0.04168582      -0.04168582       0.69734077
Al      19.17500000      11.07500000      13.10000000       0.10890804      -0.00326726      -0.39505769
Al      17.15000000      13.10000000       5.00000000       0.01302289      -0.00081213      -0.70138046
Al      17.15000000      15.12500000       7.02500000      -0.06025065       0.00525361       0.41251223
Al      19.17500000      13.10000000       7.02500000       0.12018566       0.00048671       0.40392542
Al      19.17500000      15.12500000       5.00000000       0.04582276      -0.00214715      -0.69997087
Al      17.14162764      13.11229412       9.05898333      -0.01446671       0.00199968       0.02621707
Al      17.17847609      15.12470185      11.07787144      -0.01464666      -0.00045519      -0.01312973
Al      19.20414791      13.09749415      11.07317640      -0.00649577      -0.00149799      -0.01387749
Al      19.20269724      15.12524713       9.04855981      -0.00636543      -0.00132356       0.02422200
Al      17.15000000      13.10000000      13.10000000      -0.00919114       0.01349537      -0.35759725
Al      17.15000000      15.12500000      15.12500000       0.00973098      -0.00009894       0.69195641
Al      19.17500000      13.10000000      15.12500000       0.04336873       0.00160688       0.69606005
Al      19.17500000      15.12500000      13.10000000       0.18375902      -0.00211667      -0.34474197
Al      17.15000000      17.15000000       5.00000000       0.01136840       0.01208699      -0.70134411
Al      17.15000000      19.17500000       7.02500000      -0.02072922       0.10511473       0.41619679
Al      19.17500000      17.15000000       7.02500000       0.10375878       0.01115309       0.40527312
Al      19.17500000      19.17500000       5.00000000       0.04225086       0.04346623      -0.70000224
Al      17.13730737      17.14149675       9.06013479      -0.01280528      -0.00448903       0.02804813
Al      17.12588498      19.16782870      11.07523508      -0.00502256      -0.00402824      -0.01430931
Al      19.19653569      17.15212479      11.07317644      -0.01105245      -0.00064215      -0.01621418
Al      19.17105406      19.17230066       9.05207033      -0.01137941      -0.00463694       0.03062894
Al      17.15000000      17.15000000      13.10000000      -0.01929635       0.01556673      -0.36954527
Al      17.15000000      19.17500000      15.12500000       0.00796207       0.04368920       0.69648816
Al      19.17500000      17.15000000      15.12500000       0.04140364       0.00977774       0.69531133
Al      19.17500000      19.17500000      13.10000000       0.07536789       0.09640332      -0.43191378
Al      17.15000000      21.20000000       5.00000000       0.00854082      -0.32916554      -0.63974838
Al      17.15000000      23.22500000       7.02500000       0.00856770       0.61643314       0.24368063
Al      19.17500000      21.20000000       7.02500000       0.04770716      -0.07584802       0.54910846
Al      19.17500000      23.22500000       5.00000000       0.03779373       0.19725578      -0.17226241
Al      17.14873034      21.25269990       9.06951820      -0.00775734       0.00002703       0.02534502
Al      17.16008832      23.43093101      11.09211841      -0.00669001      -0.00430530      -0.02960076
Al      19.16294373      21.22746929      11.05950072      -0.01034550       0.00047009      -0.01540448
Al      19.18101473      23.40395035       9.02557463      -0.00630994       0.00071358       0.03494683
Al      17.15000000      21.20000000      13.10000000      -0.01368655      -0.05231935      -0.54613509
Al      17.15000000      23.22500000      15.12500000       0.00696997       0.19887932       0.17116916
Al      19.17500000      21.20000000      15.12500000       0.03912690      -0.33139539       0.63645626
Al      19.17500000      23.22500000      13.10000000       0.02568716       0.59223536      -0.23245277
Al      21.20000000       5.00000000       5.00000000      -0.45405300      -0.09308261      -0.08248852
Al      21.20000000       7.02500000       7.02500000      -0.14967204       0.14967204       0.66205880
Al      23.22500000       5.00000000       7.02500000       0.04908648      -0.04908648       0.52233351
Al      23.22500000       7.02500000       5.00000000       0.09308261       0.45405300      -0.08248852
Al      21.17792216       4.87804462       9.04424049       0.00100256      -0.00128228       0.02917607
Al      21.19626443       7.02873557      11.04523465       0.00237176      -0.00237176      -0.01476073
Al      23.24767683       4.97732317      11.07799963       0.00701696      -0.00701696      -0.04653543
Al      23.34695538       7.04707784       9.04424049       0.00128228      -0.00100256       0.02917607
Al      21.20000000       5.00000000      13.10000000      -0.24736770      -0.49392721      -0.36990554
Al      21.20000000       7.02500000      15.12500000      -0.32658595       0.32658595       0.58217963
Al      23.22500000       5.00000000      15.12500000      -0.32855862       0.32855862      -0.33460476
Al      23.22500000       7.02500000      13.10000000       0.49392721       0.24736770      -0.36990554
Al      21.20000000       9.05000000       5.00000000      -0.32980714      -0.04306131      -0.63719350
Al      21.20000000      11.07500000       7.02500000      -0.03508480       0.00235527       0.53728698
Al      23.22500000       9.05000000       7.02500000       0.60063374      -0.02978182       0.22910891
Al      23.22500000      11.07500000       5.00000000       0.20214390      -0.00969441      -0.17278517
Al      21.23379137       9.05641535       9.06612394       0.00034861       0.00220096       0.02131624
Al      21.26094895      11.07081029      11.05544077      -0.00082624       0.00133960      -0.01585089
Al      23.41048942       9.04287236      11.09979591      -0.00209968       0.00132008      -0.03067004
Al      23.43088203      11.06616038       9.03189959      -0.00187298       0.00013313       0.03516756
Al      21.20000000       9.05000000      13.10000000      -0.07647178      -0.05241108      -0.54818597
Al      21.20000000      11.07500000      15.12500000      -0.33226742      -0.00856261       0.63733045
Al      23.22500000       9.05000000      15.12500000       0.19472705      -0.03794678       0.17052146
Al      23.22500000      11.07500000      13.10000000       0.62492030      -0.00620499      -0.23336163
Al      21.20000000      13.10000000       5.00000000      -0.32928655       0.00040923      -0.63958018
Al      21.20000000      15.12500000       7.02500000      -0.00195228      -0.00390911       0.53414324
Al      23.22500000      13.10000000       7.02500000       0.63625607      -0.01015720       0.24708095
Al      23.22500000      15.12500000       5.00000000       0.20468640      -0.00301426      -0.17300074
Al      21.26787779      13.09737285       9.07003522       0.00479287      -0.00071289       0.01887833
Al      21.26665256      15.12722818      11.05368910       0.00290661      -0.00465355      -0.01080326
Al      23.43582032      13.09825599      11.09441023      -0.00455532       0.00000790      -0.02946438
Al      23.43591370      15.12748622       9.03020052      -0.00260793      -0.00496016       0.03451861
Al      21.20000000      13.10000000      13.10000000      -0.00909259       0.00306814      -0.53611270
Al      21.20000000      15.12500000      15.12500000      -0.33235517      -0.00227688       0.63817120
Al      23.22500000      13.10000000      15.12500000       0.20162397       0.00167171       0.17193963
Al      23.22500000      15.12500000      13.10000000       0.62984620       0.00932097      -0.24883066
Al      21.20000000      17.15000000       5.00000000      -0.32996698       0.00819301      -0.63959601
Al      21.20000000      19.17500000       7.02500000      -0.07352605       0.05585388       0.54617453
Al      23.22500000      17.15000000       7.02500000       0.63047095       0.00606163       0.22956205
Al      23.22500000      19.17500000       5.00000000       0.19788541       0.03840071      -0.17208428
Al      21.26131829      17.15487234       9.06809081      -0.00054016      -0.00492169       0.02374391
Al      21.23870594      19.17224078      11.05877804      -0.00312228      -0.00489448      -0.01649477
Al      23.42983053      17.15905889      11.09271712      -0.00174205      -0.00468531      -0.03055951
Al      23.41183256      19.18241214       9.02440160       0.00124494      -0.00268675       0.03462679
Al      21.20000000      17.15000000      13.10000000      -0.02281226      -0.00414843      -0.52064293