299
Lattice="28.224999999999998 0.0 0.0 0.0 28.224999999999998 0.0 0.0 0.0 20.125" Properties=species:S:1:pos:R:3:forces:R:3 energy=-16469.306589180764 pbc="T T T"
Al       5.00000000       5.00000000       5.00000000       0.32679310       0.32732173       0.33186306
Al       5.00000000       7.02500000       7.02500000      -0.49782140       0.24972897       0.37978778
Al       7.02500000       5.00000000       7.02500000       0.24530779      -0.49748652       0.37454496
Al       7.02500000       7.02500000       5.00000000       0.32722586       0.32839165      -0.58838169
Al       4.97750806       4.97728609       9.04867981      -0.01276972      -0.01088464       0.03277494
Al       4.88325268       7.04826850      11.07942545      -0.00573814       0.00319552      -0.01122363
Al       7.04656904       4.87416946      11.08006727      -0.00039396      -0.00456411      -0.01209759
Al       7.02864834       7.02710394       9.08123045      -0.00258913       0.00158906      -0.00000805
Al       5.00000000       5.00000000      13.10000000      -0.05089378      -0.04578642      -0.52618425
Al       5.00000000       7.02500000      15.12500000      -0.09325803       0.45695459       0.08711133
Al       7.02500000       5.00000000      15.12500000       0.45527984      -0.09347240       0.08652715
Al       7.02500000       7.02500000      13.10000000       0.15233272       0.15642036      -0.66816784
Al       5.00000000       9.05000000       5.00000000      -0.19572199      -0.03607605      -0.17529381
Al       5.00000000      11.07500000       7.02500000      -0.61391024      -0.00718657       0.25174646
Al       7.02500000       9.05000000       7.02500000       0.08081316      -0.04411567       0.55767311
Al       7.02500000      11.07500000       5.00000000       0.33352485      -0.00703994      -0.64290503
Al       4.82138627       9.04398829       9.02700016      -0.00111107       0.00850280       0.01609577
Al       4.79443387      11.06500968      11.09101941       0.00302987       0.00720517      -0.01542817
Al       6.99747745       9.06214387      11.05825475       0.00131473       0.01201357       0.00205525
Al       6.97226046      11.07650323       9.07110883       0.00356825       0.00836230       0.00097443
Al       5.00000000       9.05000000      13.10000000      -0.59318651      -0.02400218      -0.24047163
Al       5.00000000      11.07500000      15.12500000      -0.19884522      -0.00619724       0.17467090
Al       7.02500000       9.05000000      15.12500000       0.33323625      -0.03738669       0.64167509
Al       7.02500000      11.07500000      13.10000000       0.05516717       0.01500441      -0.55486991
Al       5.00000000      13.10000000       5.00000000      -0.20218075       0.00199207      -0.17435286
Al       5.00000000      15.12500000       7.02500000      -0.63983037       0.00763276       0.25176662
Al       7.02500000      13.10000000       7.02500000       0.04741142       0.00373362       0.58063502
Al       7.02500000      15.12500000       5.00000000       0.33322320      -0.00375854      -0.64329228
Al       4.78695014      13.09690430       9.03080829       0.00462741       0.00280668       0.01775312
Al       4.78906536      15.12729037      11.09262494       0.00590440      -0.00475448      -0.01295443
Al       6.95365439      13.09544519      11.05158442       0.00191648       0.00413263       0.00739179
Al       6.95509938      15.12702842       9.07001665       0.00167256      -0.00470508      -0.00185332
Al       5.00000000      13.10000000      13.10000000      -0.63287750      -0.00873796      -0.25573320
Al       5.00000000      15.12500000      15.12500000      -0.19973750      -0.00303727       0.17358059
Al       7.02500000      13.10000000      15.12500000       0.33403587       0.00305349       0.64006030
Al       7.02500000      15.12500000      13.10000000      -0.01806839      -0.00485023      -0.52185564
Al       5.00000000      17.15000000       5.00000000      -0.20157343       0.00599829      -0.17611503
Al       5.00000000      19.17500000       7.02500000      -0.59605332       0.02532176       0.23595422
Al       7.02500000      17.15000000       7.02500000       0.05982630      -0.00841991       0.56515338
Al       7.02500000      19.17500000       5.00000000       0.33302602       0.03860999      -0.64404127
Al       4.79297677      17.16021268       9.03252818       0.00200010      -0.00805130       0.02026200
Al       4.81334445      19.18361127      11.09857931       0.00086312      -0.00933639      -0.01354302
Al       6.96031301      17.15641409      11.05360547       0.00566367      -0.00922575       0.00378432
Al       6.99490652      19.16642675       9.06797917       0.00459785      -0.01123031       0.00569180
Al       5.00000000      17.15000000      13.10000000      -0.62735425       0.00364983      -0.23840066
Al       5.00000000      19.17500000      15.12500000      -0.19455132       0.03517352       0.17414655
Al       7.02500000      17.15000000      15.12500000       0.33485786       0.00558843       0.64021246
Al       7.02500000      19.17500000      13.10000000       0.09356069       0.04284693      -0.56324429
Al       5.00000000      21.20000000       5.00000000      -0.09501413      -0.45547605      -0.08799520
Al       5.00000000      23.22500000       7.02500000      -0.04900655       0.04900655       0.52818556
Al       7.02500000      21.20000000       7.02500000       0.15884579      -0.15884579       0.66581903
Al       7.02500000      23.22500000       5.00000000       0.45547605       0.09501413      -0.08799520
Al       4.88159139      21.17644220       9.04488252      -0.00452460      -0.00218090       0.01538605
Al       4.98092044      23.24407956      11.07496154      -0.01077102       0.01077102      -0.03022126
Al       7.03417345      21.19082655      11.04513890       0.00111109      -0.00111109       0.00214232
Al       7.04855780      23.34340861       9.04488252       0.00218090       0.00452460       0.01538605
Al       5.00000000      21.20000000      13.10000000      -0.49001785      -0.24869225      -0.37528715
Al       5.00000000      23.22500000      15.12500000       0.32838693      -0.32838693      -0.33091254
Al       7.02500000      21.20000000      15.12500000       0.32913682      -0.32913682       0.58811361
Al       7.02500000      23.22500000      13.10000000       0.24869225       0.49001785      -0.37528715
Al       9.05000000       5.00000000       5.00000000      -0.03655317      -0.19625805      -0.17517049
Al       9.05000000       7.02500000       7.02500000      -0.05225900       0.07869134       0.55487361
Al      11.07500000       5.00000000       7.02500000      -0.00427434      -0.62781458       0.23792005
Al      11.07500000       7.02500000       5.00000000      -0.00636402       0.33433434      -0.64275588
Al       9.04254074       4.81355070       9.02584581       0.00500249      -0.00159826       0.01569286
Al       9.05278139       6.98634643      11.05751545       0.00681543       0.00484317       0.00084518
Al      11.06606813       4.79551980      11.09159720       0.00496161       0.00057054      -0.01673810
Al      11.07035166       6.96366908       9.06970078       0.00573117       0.00402448      -0.00093524
Al       9.05000000       5.00000000      13.10000000      -0.02644675      -0.60617652      -0.22793732
Al       9.05000000       7.02500000      15.12500000      -0.03981129       0.33510004       0.64203461
Al      11.07500000       5.00000000      15.12500000      -0.00738400      -0.20012284       0.17668164
Al      11.07500000       7.02500000      13.10000000       0.00531844       0.02612509      -0.53007158
Al       9.05000000       9.05000000       5.00000000      -0.04009254      -0.03902866      -0.70316619
Al       9.05000000      11.07500000       7.02500000      -0.09996087       0.02305303       0.42647342
Al      11.07500000       9.05000000       7.02500000      -0.00841230      -0.09860064       0.41576544
Al      11.07500000      11.07500000       5.00000000      -0.00944347      -0.00902569      -0.70283373
Al       9.05273513       9.05406705       9.05397742       0.00768758       0.01425385       0.00247171
Al       9.05706963      11.09918496      11.07391927       0.00718393       0.00680084       0.00404645
Al      11.07296158       9.02851806      11.07184918       0.00289176       0.01398552       0.00168475
Al      11.08363321      11.08787437       9.06200580       0.00669740       0.01503371      -0.00016420
Al       9.05000000       9.05000000      13.10000000      -0.09392353      -0.07243606      -0.44213522
Al       9.05000000      11.07500000      15.12500000      -0.04183474      -0.00675921       0.70099087
Al      11.07500000       9.05000000      15.12500000      -0.00879511      -0.03924403       0.70000385
Al      11.07500000      11.07500000      13.10000000      -0.01425658       0.02090462      -0.38083075
Al       9.05000000      13.10000000       5.00000000      -0.04189516       0.00119197      -0.70463163
Al       9.05000000      15.12500000       7.02500000      -0.04907574      -0.00326922       0.48113290
Al      11.07500000      13.10000000       7.02500000       0.00864678       0.04327201       0.37353372
Al      11.07500000      15.12500000       5.00000000      -0.00736160      -0.00192776      -0.70368829
Al       9.04073287      13.11126306       9.06105697       0.01357114       0.00444448       0.00090883
Al       9.00473446      15.12514013      11.07539215       0.01302813      -0.00182484       0.00519436
Al      11.14026614      13.17416724      11.09091422       0.00152161      -0.00076291       0.01359073
Al      11.10761703      15.12563403       9.08524829       0.02687255      -0.00201436       0.00842182
Al       9.05000000      13.10000000      13.10000000      -0.10197417       0.02039832      -0.42911580
Al       9.05000000      15.12500000      15.12500000      -0.04139011      -0.00204945       0.69683132
Al      11.07500000      13.10000000      15.12500000      -0.02009215      -0.00667200       0.71634939
Al      11.07500000      15.12500000      13.10000000       0.36588672       0.00687312      -0.49275734
Al       9.05000000      17.15000000       5.00000000      -0.04025175       0.00718938      -0.70509811
Al       9.05000000      19.17500000       7.02500000      -0.06701389       0.06701389       0.46039556
Al      11.07500000      17.15000000       7.02500000       0.01829071      -0.01829071       0.38026650
Al      11.07500000      19.17500000       5.00000000      -0.00718938       0.04025175      -0.70509811
Al       9.04836549      17.13876216       9.06124832       0.01677510      -0.00769506       0.00480671
Al       9.07097049      19.15402951      11.07438443       0.01198328      -0.01198328       0.00212222
Al      11.14528324      17.07971676      11.08988122       0.00134960      -0.00134960       0.01466572
Al      11.08623784      19.17663451       9.06124832       0.00769506      -0.01677510       0.00480671
Al       9.05000000      17.15000000      13.10000000      -0.08538748      -0.00964343      -0.42951111
Al       9.05000000      19.17500000      15.12500000      -0.03870353       0.03870353       0.70190478
Al      11.07500000      17.15000000      15.12500000      -0.01834287       0.01834287       0.71630757
Al      11.07500000      19.17500000      13.10000000       0.00964343       0.08538748      -0.42951111
Al       9.05000000      21.20000000       5.00000000      -0.03860999      -0.33302602      -0.64404127
Al       9.05000000      23.22500000       7.02500000      -0.02532176       0.59605332       0.23595422
Al      11.07500000      21.20000000       7.02500000       0.00841991      -0.05982630       0.56515338
Al      11.07500000      23.22500000       5.00000000      -0.00599829       0.20157343      -0.17611503
Al       9.05857325      21.23009348       9.06797917       0.01123031      -0.00459785       0.00569180
Al       9.04138873      23.41165555      11.09857931       0.00933639      -0.00086312      -0.01354302
Al      11.06858591      21.26468699      11.05360547       0.00922575      -0.00566367       0.00378432
Al      11.06478732      23.43202323       9.03252818       0.00805130      -0.00200010       0.02026200
Al       9.05000000      21.20000000      13.10000000      -0.04284693      -0.09356069      -0.56324429
Al       9.05000000      23.22500000      15.12500000      -0.03517352       0.19455132       0.17414655
Al      11.07500000      21.20000000      15.12500000      -0.00558843      -0.33485786       0.64021246
Al      11.07500000      23.22500000      13.10000000      -0.00364983       0.62735425      -0.23840066
Al      13.10000000       5.00000000       5.00000000       0.00343984      -0.20181524      -0.17533878
Al      13.10000000       7.02500000       7.02500000       0.00495501       0.00813121       0.54222457
Al      15.12500000       5.00000000       7.02500000       0.01002883      -0.63345922       0.25446354
Al      15.12500000       7.02500000       5.00000000      -0.00114921       0.33395879      -0.64229863
Al      13.09771653       4.78948027       9.03166228       0.00452516       0.00282546       0.01519043
Al      13.09802409       6.95818774      11.05267060       0.00384107       0.00136884       0.00428960
Al      15.12690590       4.78961236      11.09333266      -0.00092949       0.00280059      -0.01575549
Al      15.12777394       6.95692588       9.07154648      -0.00074934       0.00071154      -0.00554757
Al      13.10000000       5.00000000      13.10000000      -0.00877093      -0.63048921      -0.25675647
Al      13.10000000       7.02500000      15.12500000       0.00232408       0.33473731       0.64295893
Al      15.12500000       5.00000000      15.12500000      -0.00224346      -0.20169738       0.17557079
Al      15.12500000       7.02500000      13.10000000      -0.00336881       0.01218675      -0.54455971
Al      13.10000000       9.05000000       5.00000000       0.00290001      -0.04182408      -0.70184690
Al      13.10000000      11.07500000       7.02500000      -0.00378146       0.06292045       0.42342396
Al      15.12500000       9.05000000       7.02500000      -0.00111538      -0.11462335       0.41447918
Al      15.12500000      11.07500000       5.00000000      -0.00009830      -0.01026222      -0.70223969
Al      13.09987283       9.02220103       9.05043012       0.00256077       0.01164615      -0.00355370
Al      13.10037645      11.04670962      11.07672287       0.00146506       0.01523231       0.00258532
Al      15.12771155       9.02070634      11.07195129      -0.00138401       0.01124982       0.00184989
Al      15.11278913      11.08353927       9.06086857      -0.00395305       0.01565966      -0.00232976
Al      13.10000000       9.05000000      13.10000000       0.00255643      -0.18019786      -0.35607171
Al      13.10000000      11.07500000      15.12500000       0.00028022      -0.00815752       0.69574706
Al      15.12500000       9.05000000      15.12500000      -0.00241034      -0.04109525       0.70058645
Al      15.12500000      11.07500000      13.10000000      -0.01428080       0.01076956      -0.36893743
Al      13.10000000      13.10000000       5.00000000       0.00161395       0.00318582      -0.70351482
Al      13.10000000      15.12500000       7.02500000      -0.00703591       0.00703591       0.08676849
Al      15.12500000      13.10000000       7.02500000      -0.04234270       0.04234270       0.36287755
Al      15.12500000      15.12500000       5.00000000      -0.00318582      -0.00161395      -0.70351482
Al      13.09811040      13.14173730       9.08633390       0.00192982       0.02301809       0.00483112
Al      15.05052957      13.17447043      11.09157754       0.00109427      -0.00109427       0.01374741
Al      15.08326270      15.12688960       9.08633390      -0.02301809      -0.00192982       0.00483112
Al      13.10000000      13.10000000      13.10000000      -0.01537192       0.39460640      -0.47726500
Al      13.10000000      15.12500000      15.12500000       0.00033586      -0.00033586       0.85467758
Al      15.12500000      13.10000000      15.12500000       0.00667097      -0.00667097       0.71665952
Al      15.12500000      15.12500000      13.10000000      -0.39460640       0.01537192      -0.47726500
Al      13.10000000      17.15000000       5.00000000       0.00192776       0.00736160      -0.70368829
Al      13.10000000      19.17500000       7.02500000       0.00326922       0.04907574       0.48113290
Al      15.12500000      17.15000000       7.02500000      -0.04327201      -0.00864678       0.37353372
Al      15.12500000      19.17500000       5.00000000      -0.00119197       0.04189516      -0.70463163
Al      13.09936597      17.11738297       9.08524829       0.00201436      -0.02687255       0.00842182
Al      13.09985987      19.22026554      11.07539215       0.00182484      -0.01302813       0.00519436
Al      15.05083276      17.08473386      11.09091422       0.00076291      -0.00152161       0.01359073
Al      15.11373694      19.18426713       9.06105697      -0.00444448      -0.01357114       0.00090883
Al      13.10000000      17.15000000      13.10000000      -0.00687312      -0.36588672      -0.49275734
Al      13.10000000      19.17500000      15.12500000       0.00204945       0.04139011       0.69683132
Al      15.12500000      17.15000000      15.12500000       0.00667200       0.02009215       0.71634939
Al      15.12500000      19.17500000      13.10000000      -0.02039832       0.10197417      -0.42911580
Al      13.10000000      21.20000000       5.00000000       0.00375854      -0.33322320      -0.64329228
Al      13.10000000      23.22500000       7.02500000      -0.00763276       0.63983037       0.25176662
Al      15.12500000      21.20000000       7.02500000      -0.00373362      -0.04741142       0.58063502
Al      15.12500000      23.22500000       5.00000000      -0.00199207       0.20218075      -0.17435286
Al      13.09797158      21.26990062       9.07001665       0.00470508      -0.00167256      -0.00185332
Al      13.09770963      23.43593464      11.09262494       0.00475448      -0.00590440      -0.01295443
Al      15.12955481      21.27134561      11.05158442      -0.00413263      -0.00191648       0.00739179
Al      15.12809570      23.43804986       9.03080829      -0.00280668      -0.00462741       0.01775312
Al      13.10000000      21.20000000      13.10000000       0.00485023       0.01806839      -0.52185564
Al      13.10000000      23.22500000      15.12500000       0.00303727       0.19973750       0.17358059
Al      15.12500000      21.20000000      15.12500000      -0.00305349      -0.33403587       0.64006030
Al      15.12500000      23.22500000      13.10000000       0.00873796       0.63287750      -0.25573320
Al      17.15000000       5.00000000       5.00000000       0.00830062      -0.19982059      -0.17542296
Al      17.15000000       7.02500000       7.02500000      -0.00417295       0.04076163       0.54511711
Al      19.17500000       5.00000000       7.02500000       0.02764981      -0.59910928       0.23626531
Al      19.17500000       7.02500000       5.00000000       0.04022913       0.33359189      -0.64095788
Al      17.15901986       4.79457273       9.03336312      -0.00206533       0.00130511       0.01579037
Al      17.15430448       6.96401832      11.05430792      -0.00364182       0.00324396       0.00042683
Al      19.18234249       4.81505677      11.09863598      -0.00394135      -0.00097191      -0.01609442
Al      19.16873683       6.99120185       9.06768179      -0.00577828       0.00228888      -0.00374768
Al      17.15000000       5.00000000      13.10000000       0.00556006      -0.62585429      -0.24171984
Al      17.15000000       7.02500000      15.12500000       0.00707325       0.33443237       0.64255543
Al      19.17500000       5.00000000      15.12500000       0.03672939      -0.19587333       0.17482183
Al      19.17500000       7.02500000      13.10000000       0.05025393       0.07892542      -0.55627109
Al      17.15000000       9.05000000       5.00000000       0.00946573      -0.04126389      -0.70139219
Al      17.15000000      11.07500000       7.02500000      -0.00402306       0.00402306       0.37571721
Al      19.17500000       9.05000000       7.02500000       0.08896922      -0.08896922       0.43727104
Al      19.17500000      11.07500000       5.00000000       0.04126389      -0.00946573      -0.70139219
Al      17.14392036       9.04054227       9.05440695      -0.00216493       0.00992164      -0.00257831
Al      17.12813057      11.09686943      11.07412711      -0.00606054       0.00606054       0.00268841
Al      19.16861456       9.05638544      11.07274552      -0.00786570       0.00786570      -0.00106512
Al      19.18445773      11.08107964       9.05440695      -0.00992164       0.00216493      -0.00257831
Al      17.15000000       9.05000000      13.10000000       0.00202823      -0.10593344      -0.40541812
Al      17.15000000      11.07500000      15.12500000       0.00896163      -0.00896163       0.70045350
Al      19.17500000       9.05000000      15.12500000       0.03953237      -0.03953237       0.70282239
Al      19.17500000      11.07500000      13.10000000       0.10593344      -0.00202823      -0.40541812
Al      17.15000000      13.10000000       5.00000000       0.01026222       0.00009830      -0.70223969
Al      17.15000000      15.12500000       7.02500000      -0.06292045       0.00378146       0.42342396
Al      19.17500000      13.10000000       7.02500000       0.11462335       0.00111538       0.41447918
Al      19.17500000      15.12500000       5.00000000       0.04182408      -0.00290001      -0.70184690
Al      17.14146073      13.11221087       9.06086857      -0.01565966       0.00395305      -0.00232976
Al      17.17829038      15.12462355      11.07672287      -0.01523231      -0.00146506       0.00258532
Al      19.20429366      13.09728845      11.07195129      -0.01124982       0.00138401       0.00184989
Al      19.20279897      15.12512717       9.05043012      -0.01164615      -0.00256077      -0.00355370
Al      17.15000000      13.10000000      13.10000000      -0.01076956       0.01428080      -0.36893743
Al      17.15000000      15.12500000      15.12500000       0.00815752      -0.00028022       0.69574706
Al      19.17500000      13.10000000      15.12500000       0.04109525       0.00241034       0.70058645
Al      19.17500000      15.12500000      13.10000000       0.18019786      -0.00255643      -0.35607171
Al      17.15000000      17.15000000       5.00000000       0.00902569       0.00944347      -0.70283373
Al      17.15000000      19.17500000       7.02500000      -0.02305303       0.09996087       0.42647342
Al      19.17500000      17.15000000       7.02500000       0.09860064       0.00841230       0.41576544
Al      19.17500000      19.17500000       5.00000000       0.03902866       0.04009254      -0.70316619
Al      17.13712563      17.14136679       9.06200580      -0.01503371      -0.00669740      -0.00016420
Al      17.12581504      19.16793037      11.07391927      -0.00680084      -0.00718393       0.00404645
Al      19.19648194      17.15203842      11.07184918      -0.01398552      -0.00289176       0.00168475
Al      19.17093295      19.17226487       9.05397742      -0.01425385      -0.00768758       0.00247171
Al      17.15000000      17.15000000      13.10000000      -0.02090462       0.01425658      -0.38083075
Al      17.15000000      19.17500000      15.12500000       0.00675921       0.04183474       0.70099087
Al      19.17500000      17.15000000      15.12500000       0.03924403       0.00879511       0.70000385
Al      19.17500000      19.17500000      13.10000000       0.07243606       0.09392353      -0.44213522
Al      17.15000000      21.20000000       5.00000000       0.00703994      -0.33352485      -0.64290503
Al      17.15000000      23.22500000       7.02500000       0.00718657       0.61391024       0.25174646
Al      19.17500000      21.20000000       7.02500000       0.04411567      -0.08081316       0.55767311
Al      19.17500000      23.22500000       5.00000000       0.03607605       0.19572199      -0.17529381
Al      17.14849677      21.25273954       9.07110883      -0.00836230      -0.00356825       0.00097443
Al      17.15999032      23.43056613      11.09101941      -0.00720517      -0.00302987      -0.01542817
Al      19.16285613      21.22752255      11.05825475      -0.01201357      -0.00131473       0.00205525
Al      19.18101171      23.40361373       9.02700016      -0.00850280       0.00111107       0.01609577
Al      17.15000000      21.20000000      13.10000000      -0.01500441      -0.05516717      -0.55486991
Al      17.15000000      23.22500000      15.12500000       0.00619724       0.19884522       0.17467090
Al      19.17500000      21.20000000      15.12500000       0.03738669      -0.33323625       0.64167509
Al      19.17500000      23.22500000      13.10000000       0.02400218       0.59318651      -0.24047163
Al      21.20000000       5.00000000       5.00000000      -0.45575387      -0.09264903      -0.08564781
Al      21.20000000       7.02500000       7.02500000      -0.15302085       0.15302085       0.66781223
Al      23.22500000       5.00000000       7.02500000       0.04742799      -0.04742799       0.52648821
Al      23.22500000       7.02500000       5.00000000       0.09264903       0.45575387      -0.08564781
Al      21.17792147       4.87856740       9.04549938      -0.00043105      -0.00429366       0.01010815
Al      21.19632108       7.02867892      11.04422523       0.00108056      -0.00108056       0.00109147
Al      23.24739272       4.97760728      11.07670075       0.01139569      -0.01139569      -0.03374581
Al      23.34643260       7.04707853       9.04549938       0.00429366       0.00043105       0.01010815
Al      21.20000000       5.00000000      13.10000000      -0.24750051      -0.49641486      -0.37673068
Al      21.20000000       7.02500000      15.12500000      -0.32781693       0.32781693       0.58806348
Al      23.22500000       5.00000000      15.12500000      -0.32726214       0.32726214      -0.33240407
Al      23.22500000       7.02500000      13.10000000       0.49641486       0.24750051      -0.37673068
Al      21.20000000       9.05000000       5.00000000      -0.33359189      -0.04022913      -0.64095788
Al      21.20000000      11.07500000       7.02500000      -0.04076163       0.00417295       0.54511711
Al      23.22500000       9.05000000       7.02500000       0.59910928      -0.02764981       0.23626531
Al      23.22500000      11.07500000       5.00000000       0.19982059      -0.00830062      -0.17542296
Al      21.23379815       9.05626317       9.06768179      -0.00228888       0.00577828      -0.00374768
Al      21.26098168      11.07069552      11.05430792      -0.00324396       0.00364182       0.00042683
Al      23.40994323       9.04265751      11.09863598       0.00097191       0.00394135      -0.01609442
Al      23.43042727      11.06598014       9.03336312      -0.00130511       0.00206533       0.01579037
Al      21.20000000       9.05000000      13.10000000      -0.07892542      -0.05025393      -0.55627109
Al      21.20000000      11.07500000      15.12500000      -0.33443237      -0.00707325       0.64255543
Al      23.22500000       9.05000000      15.12500000       0.19587333      -0.03672939       0.17482183
Al      23.22500000      11.07500000      13.10000000       0.62585429      -0.00556006      -0.24171984
Al      21.20000000      13.10000000       5.00000000      -0.33395879       0.00114921      -0.64229863
Al      21.20000000      15.12500000       7.02500000      -0.00813121      -0.00495501       0.54222457
Al      23.22500000      13.10000000       7.02500000       0.63345922      -0.01002883       0.25446354
Al      23.22500000      15.12500000       5.00000000       0.20181524      -0.00343984      -0.17533878
Al      21.26807412      13.09722606       9.07154648      -0.00071154       0.00074934      -0.00554757
Al      21.26681226      15.12697591      11.05267060      -0.00136884      -0.00384107       0.00428960
Al      23.43538764      13.09809410      11.09333266      -0.00280059       0.00092949      -0.01575549
Al      23.43551973      15.12728347       9.03166228      -0.00282546      -0.00452516       0.01519043
Al      21.20000000      13.10000000      13.10000000      -0.01218675       0.00336881      -0.54455971
Al      21.20000000      15.12500000      15.12500000      -0.33473731      -0.00232408       0.64295893
Al      23.22500000      13.10000000      15.12500000       0.20169738       0.00224346       0.17557079
Al      23.22500000      15.12500000      13.10000000       0.63048921       0.00877093      -0.25675647
Al      21.20000000      17.15000000       5.00000000      -0.33433434       0.00636402      -0.64275588
Al      21.20000000      19.17500000       7.02500000      -0.07869134       0.05225900       0.55487361
Al      23.22500000      17.15000000       7.02500000       0.62781458       0.00427434       0.23792005
Al      23.22500000      19.17500000       5.00000000       0.19625805       0.03655317      -0.17517049
Al      21.26133092      17.15464834       9.06970078      -0.00402448      -0.00573117      -0.00093524
Al      21.23865357      19.17221861      11.05751545      -0.00484317      -0.00681543       0.00084518
Al      23.42948020      17.15893187      11.09159720      -0.00057054      -0.00496161      -0.01673810
Al      23.41144930      19.18245926       9.02584581       0.00159826      -0.00500249       0.01569286
Al      21.20000000      17.15000000      13.10000000      -0.02612509      -0.00531844      -0.53007158